 vasp.5.4.4.18Apr17-6-g9f103f2a35 (build Aug 01 2017 10:32:50) complex          
  
 executed on             LinuxIFC date 2018.05.24  21:35:40
 running on  576 total cores
 distrk:  each k-point on  576 cores,    1 groups
 distr:  one band on NCORES_PER_BAND=   1 cores,  576 groups


--------------------------------------------------------------------------------------------------------


 INCAR:
 POTCAR:    PAW In_d_GW 15Mar2013                 
 POTCAR:    PAW P_GW 19Mar2012                    

 ----------------------------------------------------------------------------- 
|                                                                             |
|           W    W    AA    RRRRR   N    N  II  N    N   GGGG   !!!           |
|           W    W   A  A   R    R  NN   N  II  NN   N  G    G  !!!           |
|           W    W  A    A  R    R  N N  N  II  N N  N  G       !!!           |
|           W WW W  AAAAAA  RRRRR   N  N N  II  N  N N  G  GGG   !            |
|           WW  WW  A    A  R   R   N   NN  II  N   NN  G    G                |
|           W    W  A    A  R    R  N    N  II  N    N   GGGG   !!!           |
|                                                                             |
|      For optimal performance we recommend to set                            |
|        NCORE= 4 - approx SQRT( number of cores)                             |
|      NCORE specifies how many cores store one orbital (NPAR=cpu/NCORE).     |
|      This setting can  greatly improve the performance of VASP for DFT.     |
|      The default,   NCORE=1            might be grossly inefficient         |
|      on modern multi-core architectures or massively parallel machines.     |
|      Do your own testing !!!!                                               |
|      Unfortunately you need to use the default for GW and RPA calculations. |
|      (for HF NCORE is supported but not extensively tested yet)             |
|                                                                             |
 ----------------------------------------------------------------------------- 

 POTCAR:    PAW In_d_GW 15Mar2013                 
   VRHFIN =In: s2p1                                                             
   LEXCH  = CA                                                                  
   EATOM  =  1579.9794 eV,  116.1252 Ry                                         
                                                                                
   TITEL  = PAW In_d_GW 15Mar2013                                               
   LULTRA =        F    use ultrasoft PP ?                                      
   IUNSCR =        1    unscreen: 0-lin 1-nonlin 2-no                           
   RPACOR =    2.200    partial core radius                                     
   POMASS =  114.820; ZVAL   =   13.000    mass and valenz                      
   RCORE  =    2.500    outmost cutoff radius                                   
   RWIGS  =    2.500; RWIGS  =    1.323    wigner-seitz radius (au A)           
   ENMAX  =  278.582; ENMIN  =  208.936 eV                                      
   RCLOC  =    1.602    cutoff for local pot                                    
   LCOR   =        T    correct aug charges                                     
   LPAW   =        T    paw PP                                                  
   EAUG   =  662.551                                                            
   DEXC   =    0.000                                                            
   RMAX   =    2.552    core radius for proj-oper                               
   RAUG   =    1.300    factor for augmentation sphere                          
   RDEP   =    2.630    radius for radial grids                                 
   RDEPT  =    2.023    core radius for aug-charge                              
                                                                                
   Atomic configuration                                                         
   12 entries                                                                   
     n  l   j            E        occ.                                          
     1  0  0.50    -27589.7837   2.0000                                         
     2  0  0.50     -4136.3979   2.0000                                         
     2  1  1.50     -3718.7207   6.0000                                         
     3  0  0.50      -784.7368   2.0000                                         
     3  1  1.50      -647.3912   6.0000                                         
     3  2  2.50      -432.7327  10.0000                                         
     4  0  0.50      -119.0564   2.0000                                         
     4  1  1.50       -77.8989   6.0000                                         
     4  2  2.50       -18.7494  10.0000                                         
     5  0  0.50        -8.4628   2.0000                                         
     5  1  0.50        -2.7047   1.0000                                         
     4  3  2.50        -2.7212   0.0000                                         
   Description                                                                  
     l       E           TYP  RCUT    TYP  RCUT                                 
     2    -18.7494033     23  2.300                                             
     2    -20.1099859     23  2.300                                             
     2     68.0291300     23  2.300                                             
     0     -8.4627526     23  1.900                                             
     0     81.6349560     23  1.900                                             
     1     -2.7046683     23  2.100                                             
     1     81.6349560     23  2.300                                             
     3     20.4087390     23  2.500                                             
     3     40.8174780     23  2.500                                             
  local pseudopotential read in
  partial core-charges read in
  partial kinetic energy density read in
  kinetic energy density of atom read in
  atomic valenz-charges read in
  non local Contribution for L=           2  read in
    real space projection operators read in
  non local Contribution for L=           2  read in
    real space projection operators read in
  non local Contribution for L=           2  read in
    real space projection operators read in
  non local Contribution for L=           0  read in
    real space projection operators read in
  non local Contribution for L=           0  read in
    real space projection operators read in
  non local Contribution for L=           1  read in
    real space projection operators read in
  non local Contribution for L=           1  read in
    real space projection operators read in
  non local Contribution for L=           3  read in
    real space projection operators read in
  non local Contribution for L=           3  read in
    real space projection operators read in
    PAW grid and wavefunctions read in
 
   number of l-projection  operators is LMAX  =           9
   number of lm-projection operators is LMMAX =          37
 
 POTCAR:    PAW P_GW 19Mar2012                    
   VRHFIN =P : s2p3                                                             
   LEXCH  = CA                                                                  
   EATOM  =   176.5121 eV,   12.9733 Ry                                         
                                                                                
   TITEL  = PAW P_GW 19Mar2012                                                  
   LULTRA =        F    use ultrasoft PP ?                                      
   IUNSCR =        1    unscreen: 0-lin 1-nonlin 2-no                           
   RPACOR =    1.400    partial core radius                                     
   POMASS =   30.974; ZVAL   =    5.000    mass and valenz                      
   RCORE  =    2.000    outmost cutoff radius                                   
   RWIGS  =    1.900; RWIGS  =    1.005    wigner-seitz radius (au A)           
   ENMAX  =  255.155; ENMIN  =  191.366 eV                                      
   ICORE  =        3    local potential                                         
   LCOR   =        T    correct aug charges                                     
   LPAW   =        T    paw PP                                                  
   EAUG   =  499.732                                                            
   DEXC   =    0.000                                                            
   RMAX   =    2.047    core radius for proj-oper                               
   RAUG   =    1.300    factor for augmentation sphere                          
   RDEP   =    2.059    radius for radial grids                                 
   RDEPT  =    1.900    core radius for aug-charge                              
                                                                                
   Atomic configuration                                                         
    7 entries                                                                   
     n  l   j            E        occ.                                          
     1  0  0.50     -2072.7761   2.0000                                         
     2  0  0.50      -172.9483   2.0000                                         
     2  1  1.50      -124.4644   6.0000                                         
     3  0  0.50       -14.0086   2.0000                                         
     3  1  0.50        -5.6037   3.0000                                         
     3  2  1.50        -6.8029   0.0000                                         
     4  3  2.50        -1.3606   0.0000                                         
   Description                                                                  
     l       E           TYP  RCUT    TYP  RCUT                                 
     0    -14.0086211     23  1.900                                             
     0    102.0436950     23  1.900                                             
     1     -5.6037292     23  1.900                                             
     1    102.0436950     23  1.900                                             
     2     -8.1634956     23  2.000                                             
     2     81.6349560     23  2.000                                             
     3     27.2116520     23  2.000                                             
  local pseudopotential read in
  partial core-charges read in
  partial kinetic energy density read in
  kinetic energy density of atom read in
  atomic valenz-charges read in
  non local Contribution for L=           0  read in
    real space projection operators read in
  non local Contribution for L=           0  read in
    real space projection operators read in
  non local Contribution for L=           1  read in
    real space projection operators read in
  non local Contribution for L=           1  read in
    real space projection operators read in
  non local Contribution for L=           2  read in
    real space projection operators read in
  non local Contribution for L=           2  read in
    real space projection operators read in
    PAW grid and wavefunctions read in
 
   number of l-projection  operators is LMAX  =           6
   number of lm-projection operators is LMMAX =          18
 

 ----------------------------------------------------------------------------- 
|                                                                             |
|  ADVICE TO THIS USER RUNNING 'VASP/VAMP'   (HEAR YOUR MASTER'S VOICE ...):  |
|                                                                             |
|      You have a (more or less) 'large supercell' and for larger cells       |
|      it might be more efficient to use real space projection opertators     |
|      So try LREAL= Auto  in the INCAR   file.                               |
|      Mind:          For very  accurate calculation you might also keep the  |
|      reciprocal projection scheme          (i.e. LREAL=.FALSE.)             |
|                                                                             |
 ----------------------------------------------------------------------------- 

  PAW In_d_GW 15Mar2013                 :
 energy of atom  1       EATOM=-1579.9794
 kinetic energy error for atom=    0.0027 (will be added to EATOM!!)
  PAW P_GW 19Mar2012                    :
 energy of atom  2       EATOM= -176.5121
 kinetic energy error for atom=    0.0005 (will be added to EATOM!!)
 
 
 POSCAR: Initial State for  iIn_0_110pCs_tdA_sc3k
  positions in direct lattice
  No initial velocities read in
 exchange correlation table for  LEXCH =        2
   RHO(1)=    0.500       N(1)  =     2000
   RHO(2)=  100.500       N(2)  =     4000
 


--------------------------------------------------------------------------------------------------------


 ion  position               nearest neighbor table
   1  0.591  0.591  0.594- 109 2.47 112 2.51 113 2.51 111 2.56
   2  0.590  0.410  0.408- 115 2.52 114 2.53 120 2.53 110 2.71 109 2.71
   3  0.410  0.590  0.408- 118 2.52 116 2.53 121 2.53 110 2.71 109 2.71
   4  0.409  0.409  0.594- 110 2.47 117 2.51 119 2.51 122 2.56
   5  0.749  0.584  0.418- 123 2.54 111 2.54 132 2.54 114 2.55
   6  0.750  0.418  0.584- 123 2.53 112 2.54 134 2.54 115 2.54
   7  0.584  0.749  0.418- 124 2.54 111 2.54 133 2.54 116 2.55
   8  0.584  0.416  0.753- 135 2.53 125 2.53 112 2.53 117 2.53
   9  0.418  0.750  0.584- 124 2.53 113 2.54 136 2.54 118 2.54
  10  0.416  0.584  0.753- 137 2.53 125 2.53 119 2.53 113 2.53
  11  0.583  0.583  0.249- 126 2.53 139 2.54 114 2.54 116 2.54
  12  0.582  0.250  0.584- 127 2.53 117 2.54 140 2.54 115 2.54
  13  0.250  0.582  0.584- 128 2.53 119 2.54 143 2.54 118 2.54
  14  0.417  0.417  0.249- 126 2.53 150 2.54 120 2.54 121 2.54
  15  0.416  0.251  0.418- 127 2.54 122 2.54 151 2.54 120 2.55
  16  0.251  0.416  0.418- 128 2.54 122 2.54 152 2.54 121 2.55
  17  0.754  0.754  0.584- 111 2.50 153 2.51 130 2.54 129 2.54
  18  0.752  0.584  0.752- 154 2.52 112 2.53 131 2.53 129 2.54
  19  0.584  0.752  0.752- 155 2.52 113 2.53 131 2.53 130 2.54
  20  0.753  0.417  0.247- 114 2.52 156 2.52 138 2.54 144 2.54
  21  0.750  0.250  0.416- 157 2.53 145 2.54 138 2.54 115 2.55
  22  0.417  0.753  0.247- 116 2.52 158 2.52 141 2.54 146 2.54
  23  0.250  0.750  0.416- 160 2.53 147 2.54 141 2.54 118 2.55
  24  0.416  0.248  0.752- 159 2.52 117 2.53 142 2.53 148 2.54
  25  0.248  0.416  0.752- 161 2.52 119 2.53 142 2.53 149 2.54
  26  0.583  0.247  0.247- 120 2.52 162 2.52 145 2.54 144 2.54
  27  0.247  0.583  0.247- 121 2.52 163 2.52 147 2.54 146 2.54
  28  0.246  0.246  0.584- 122 2.50 164 2.51 149 2.54 148 2.54
  29  0.917  0.584  0.583- 165 2.53 166 2.53 129 2.53 123 2.54
  30  0.584  0.917  0.583- 167 2.53 168 2.53 130 2.53 124 2.54
  31  0.584  0.584  0.918- 169 2.53 170 2.53 131 2.54 125 2.54
  32  0.916  0.417  0.417- 171 2.53 138 2.54 172 2.54 123 2.54
  33  0.750  0.750  0.250- 132 2.53 133 2.53 178 2.53 139 2.54
  34  0.750  0.250  0.750- 179 2.53 135 2.53 140 2.53 134 2.53
  35  0.417  0.916  0.417- 173 2.53 141 2.54 174 2.54 124 2.54
  36  0.416  0.416  0.918- 176 2.53 175 2.53 142 2.54 125 2.54
  37  0.250  0.750  0.750- 180 2.53 137 2.53 143 2.53 136 2.53
  38  0.584  0.416  0.083- 144 2.53 126 2.54 169 2.54 175 2.54
  39  0.416  0.584  0.083- 146 2.53 126 2.54 170 2.54 176 2.54
  40  0.583  0.084  0.417- 173 2.53 145 2.54 167 2.54 127 2.54
  41  0.416  0.083  0.583- 174 2.53 168 2.53 148 2.53 127 2.54
  42  0.084  0.583  0.417- 171 2.53 147 2.54 165 2.54 128 2.54
  43  0.083  0.416  0.583- 172 2.53 166 2.53 149 2.53 128 2.54
  44  0.250  0.250  0.250- 151 2.53 152 2.53 184 2.53 150 2.54
  45  0.917  0.750  0.416- 191 2.53 153 2.53 132 2.54 165 2.54
  46  0.750  0.917  0.416- 192 2.53 153 2.53 133 2.54 167 2.54
  47  0.917  0.417  0.750- 193 2.53 154 2.53 166 2.53 134 2.54
  48  0.751  0.417  0.917- 194 2.53 169 2.53 154 2.53 135 2.53
  49  0.417  0.917  0.750- 196 2.53 155 2.53 168 2.53 136 2.54
  50  0.417  0.751  0.917- 197 2.53 170 2.53 155 2.53 137 2.53
  51  0.917  0.584  0.250- 195 2.53 156 2.53 132 2.53 171 2.53
  52  0.916  0.250  0.583- 172 2.53 157 2.54 199 2.54 134 2.54
  53  0.584  0.917  0.250- 198 2.53 158 2.53 133 2.53 173 2.53
  54  0.583  0.249  0.917- 200 2.53 175 2.53 159 2.53 135 2.53
  55  0.250  0.916  0.583- 174 2.53 160 2.54 202 2.54 136 2.54
  56  0.249  0.583  0.917- 204 2.53 176 2.53 161 2.53 137 2.53
  57  0.750  0.584  0.083- 156 2.53 188 2.53 139 2.53 169 2.53
  58  0.584  0.750  0.083- 158 2.53 190 2.53 139 2.53 170 2.53
  59  0.750  0.084  0.583- 167 2.53 157 2.54 187 2.54 140 2.54
  60  0.583  0.083  0.750- 189 2.53 159 2.53 168 2.53 140 2.54
  61  0.084  0.750  0.583- 165 2.53 160 2.54 185 2.54 143 2.54
  62  0.083  0.583  0.750- 186 2.53 161 2.53 166 2.53 143 2.54
  63  0.416  0.250  0.083- 162 2.53 207 2.53 150 2.53 175 2.53
  64  0.416  0.083  0.250- 205 2.53 162 2.53 151 2.53 173 2.53
  65  0.250  0.416  0.083- 163 2.53 208 2.53 150 2.53 176 2.53
  66  0.250  0.083  0.416- 206 2.53 164 2.53 151 2.54 174 2.54
  67  0.083  0.416  0.250- 201 2.53 163 2.53 152 2.53 171 2.53
  68  0.083  0.250  0.416- 203 2.53 164 2.53 152 2.54 172 2.54
  69  0.917  0.750  0.750- 129 2.53 186 2.53 185 2.53 177 2.53
  70  0.750  0.917  0.750- 130 2.53 189 2.53 187 2.53 177 2.53
  71  0.751  0.751  0.917- 188 2.53 190 2.53 177 2.53 131 2.53
  72  0.917  0.250  0.250- 203 2.53 181 2.53 201 2.53 138 2.53
  73  0.250  0.917  0.250- 206 2.53 182 2.53 205 2.53 141 2.53
  74  0.249  0.249  0.917- 207 2.53 208 2.53 183 2.53 142 2.53
  75  0.750  0.250  0.083- 144 2.53 194 2.53 200 2.53 181 2.53
  76  0.750  0.083  0.250- 192 2.53 181 2.53 198 2.53 145 2.53
  77  0.250  0.750  0.083- 146 2.53 197 2.53 204 2.53 182 2.53
  78  0.083  0.750  0.250- 191 2.53 182 2.53 195 2.53 147 2.53
  79  0.250  0.083  0.750- 148 2.53 196 2.53 202 2.53 183 2.53
  80  0.083  0.250  0.750- 149 2.53 193 2.53 199 2.53 183 2.53
  81  0.918  0.918  0.583- 153 2.52 209 2.52 187 2.53 185 2.53
  82  0.917  0.584  0.917- 210 2.53 154 2.53 186 2.53 188 2.53
  83  0.584  0.917  0.917- 211 2.53 155 2.53 189 2.53 190 2.53
  84  0.918  0.416  0.083- 156 2.52 210 2.52 201 2.53 194 2.53
  85  0.916  0.084  0.416- 192 2.53 203 2.53 209 2.53 157 2.54
  86  0.416  0.918  0.083- 158 2.52 211 2.52 205 2.53 197 2.53
  87  0.084  0.916  0.416- 191 2.53 206 2.53 209 2.53 160 2.54
  88  0.416  0.083  0.917- 211 2.53 159 2.53 196 2.53 207 2.53
  89  0.083  0.416  0.917- 210 2.53 161 2.53 193 2.53 208 2.53
  90  0.584  0.082  0.083- 162 2.52 211 2.52 198 2.53 200 2.53
  91  0.082  0.584  0.083- 163 2.52 210 2.52 195 2.53 204 2.53
  92  0.082  0.082  0.583- 164 2.52 209 2.52 202 2.53 199 2.53
  93  0.917  0.917  0.250- 191 2.53 192 2.53 178 2.53 215 2.53
  94  0.917  0.250  0.917- 194 2.53 193 2.53 179 2.53 216 2.53
  95  0.917  0.750  0.084- 178 2.53 195 2.53 188 2.53 213 2.53
  96  0.250  0.917  0.917- 197 2.53 196 2.53 180 2.53 217 2.53
  97  0.750  0.917  0.084- 178 2.53 198 2.53 190 2.53 214 2.53
  98  0.917  0.083  0.750- 187 2.53 199 2.53 179 2.53 212 2.53
  99  0.750  0.083  0.917- 200 2.53 189 2.53 179 2.53 214 2.53
 100  0.083  0.917  0.750- 185 2.53 202 2.53 180 2.53 212 2.53
 101  0.083  0.750  0.917- 204 2.53 186 2.53 180 2.53 213 2.53
 102  0.250  0.083  0.084- 184 2.53 205 2.53 207 2.53 217 2.53
 103  0.083  0.250  0.084- 184 2.53 201 2.53 208 2.53 216 2.53
 104  0.083  0.083  0.250- 203 2.53 206 2.53 184 2.53 215 2.53
 105  0.917  0.917  0.917- 177 2.53 212 2.53 213 2.53 214 2.53
 106  0.917  0.083  0.083- 181 2.53 215 2.53 214 2.53 216 2.53
 107  0.083  0.917  0.083- 182 2.53 215 2.53 213 2.53 217 2.53
 108  0.083  0.083  0.917- 183 2.53 212 2.53 216 2.53 217 2.53
 109  0.544  0.544  0.471- 110 2.17   1 2.47   3 2.71   2 2.71
 110  0.456  0.456  0.471- 109 2.17   4 2.47   2 2.71   3 2.71
 111  0.672  0.672  0.503-  17 2.50   7 2.54   5 2.54   1 2.56
 112  0.669  0.499  0.671-   1 2.51  18 2.53   8 2.53   6 2.54
 113  0.499  0.669  0.671-   1 2.51  19 2.53  10 2.53   9 2.54
 114  0.671  0.500  0.329-  20 2.52   2 2.53  11 2.54   5 2.55
 115  0.666  0.334  0.501-   2 2.52   6 2.54  12 2.54  21 2.55
 116  0.500  0.671  0.329-  22 2.52   3 2.53  11 2.54   7 2.55
 117  0.501  0.331  0.671-   4 2.51  24 2.53   8 2.53  12 2.54
 118  0.334  0.666  0.501-   3 2.52   9 2.54  13 2.54  23 2.55
 119  0.331  0.501  0.671-   4 2.51  25 2.53  10 2.53  13 2.54
 120  0.500  0.329  0.329-  26 2.52   2 2.53  14 2.54  15 2.55
 121  0.329  0.500  0.329-  27 2.52   3 2.53  14 2.54  16 2.55
 122  0.328  0.328  0.503-  28 2.50  16 2.54  15 2.54   4 2.56
 123  0.833  0.501  0.500-   6 2.53   5 2.54  29 2.54  32 2.54
 124  0.501  0.833  0.500-   9 2.53   7 2.54  30 2.54  35 2.54
 125  0.500  0.500  0.835-   8 2.53  10 2.53  31 2.54  36 2.54
 126  0.500  0.500  0.166-  11 2.53  14 2.53  38 2.54  39 2.54
 127  0.499  0.167  0.500-  12 2.53  15 2.54  41 2.54  40 2.54
 128  0.167  0.499  0.500-  13 2.53  16 2.54  43 2.54  42 2.54
 129  0.834  0.667  0.667-  69 2.53  29 2.53  17 2.54  18 2.54
 130  0.667  0.834  0.667-  70 2.53  30 2.53  17 2.54  19 2.54
 131  0.667  0.667  0.834-  71 2.53  19 2.53  18 2.53  31 2.54
 132  0.833  0.666  0.334-  33 2.53  51 2.53  45 2.54   5 2.54
 133  0.666  0.833  0.334-  33 2.53  53 2.53  46 2.54   7 2.54
 134  0.833  0.334  0.667-  34 2.53  47 2.54  52 2.54   6 2.54
 135  0.667  0.333  0.835-   8 2.53  48 2.53  54 2.53  34 2.53
 136  0.334  0.833  0.667-  37 2.53  49 2.54  55 2.54   9 2.54
 137  0.333  0.667  0.835-  10 2.53  50 2.53  56 2.53  37 2.53
 138  0.833  0.333  0.333-  72 2.53  32 2.54  21 2.54  20 2.54
 139  0.667  0.667  0.167-  57 2.53  58 2.53  33 2.54  11 2.54
 140  0.666  0.167  0.667-  34 2.53  60 2.54  59 2.54  12 2.54
 141  0.333  0.833  0.333-  73 2.53  35 2.54  23 2.54  22 2.54
 142  0.333  0.333  0.834-  74 2.53  25 2.53  24 2.53  36 2.54
 143  0.167  0.666  0.667-  37 2.53  62 2.54  61 2.54  13 2.54
 144  0.667  0.333  0.166-  75 2.53  38 2.53  20 2.54  26 2.54
 145  0.667  0.167  0.333-  76 2.53  40 2.54  21 2.54  26 2.54
 146  0.333  0.667  0.166-  77 2.53  39 2.53  27 2.54  22 2.54
 147  0.167  0.667  0.333-  78 2.53  42 2.54  23 2.54  27 2.54
 148  0.333  0.166  0.667-  79 2.53  41 2.53  28 2.54  24 2.54
 149  0.166  0.333  0.667-  80 2.53  43 2.53  28 2.54  25 2.54
 150  0.333  0.333  0.167-  63 2.53  65 2.53  44 2.54  14 2.54
 151  0.334  0.167  0.334-  44 2.53  64 2.53  66 2.54  15 2.54
 152  0.167  0.334  0.334-  44 2.53  67 2.53  68 2.54  16 2.54
 153  0.836  0.836  0.499-  17 2.51  81 2.52  46 2.53  45 2.53
 154  0.835  0.500  0.834-  18 2.52  82 2.53  47 2.53  48 2.53
 155  0.500  0.835  0.834-  19 2.52  83 2.53  49 2.53  50 2.53
 156  0.835  0.501  0.165-  20 2.52  84 2.52  57 2.53  51 2.53
 157  0.833  0.167  0.500-  21 2.53  52 2.54  59 2.54  85 2.54
 158  0.501  0.835  0.165-  22 2.52  86 2.52  58 2.53  53 2.53
 159  0.500  0.165  0.834-  24 2.52  88 2.53  60 2.53  54 2.53
 160  0.167  0.833  0.500-  23 2.53  55 2.54  61 2.54  87 2.54
 161  0.165  0.500  0.834-  25 2.52  89 2.53  62 2.53  56 2.53
 162  0.499  0.165  0.165-  26 2.52  90 2.52  63 2.53  64 2.53
 163  0.165  0.499  0.165-  27 2.52  91 2.52  65 2.53  67 2.53
 164  0.164  0.164  0.499-  28 2.51  92 2.52  68 2.53  66 2.53
 165  0.000  0.667  0.500-  61 2.53  29 2.53  42 2.54  45 2.54
 166  0.000  0.500  0.667-  47 2.53  62 2.53  29 2.53  43 2.53
 167  0.667  0.000  0.500-  59 2.53  30 2.53  40 2.54  46 2.54
 168  0.500  0.000  0.667-  49 2.53  60 2.53  30 2.53  41 2.53
 169  0.667  0.500  0.000-  31 2.53  48 2.53  57 2.53  38 2.54
 170  0.500  0.667  0.000-  31 2.53  50 2.53  58 2.53  39 2.54
 171  0.000  0.500  0.333-  32 2.53  42 2.53  51 2.53  67 2.53
 172  1.000  0.333  0.500-  52 2.53  43 2.53  32 2.54  68 2.54
 173  0.500  0.000  0.333-  35 2.53  40 2.53  53 2.53  64 2.53
 174  0.333  1.000  0.500-  55 2.53  41 2.53  35 2.54  66 2.54
 175  0.500  0.333  0.000-  36 2.53  54 2.53  63 2.53  38 2.54
 176  0.333  0.500  0.000-  36 2.53  56 2.53  65 2.53  39 2.54
 177  0.834  0.834  0.833- 105 2.53  71 2.53  69 2.53  70 2.53
 178  0.833  0.833  0.167-  95 2.53  97 2.53  93 2.53  33 2.53
 179  0.833  0.167  0.833-  98 2.53  94 2.53  99 2.53  34 2.53
 180  0.167  0.833  0.833- 100 2.53  96 2.53 101 2.53  37 2.53
 181  0.833  0.167  0.167-  72 2.53  76 2.53  75 2.53 106 2.53
 182  0.167  0.833  0.167-  73 2.53  78 2.53  77 2.53 107 2.53
 183  0.166  0.166  0.833- 108 2.53  74 2.53  80 2.53  79 2.53
 184  0.167  0.167  0.167- 102 2.53 103 2.53 104 2.53  44 2.53
 185  0.000  0.833  0.666- 100 2.53  69 2.53  81 2.53  61 2.54
 186  0.000  0.667  0.833-  69 2.53 101 2.53  82 2.53  62 2.53
 187  0.833  0.000  0.666-  98 2.53  70 2.53  81 2.53  59 2.54
 188  0.834  0.667  0.000-  71 2.53  82 2.53  95 2.53  57 2.53
 189  0.667  0.000  0.833-  70 2.53  99 2.53  83 2.53  60 2.53
 190  0.667  0.834  0.000-  71 2.53  83 2.53  97 2.53  58 2.53
 191  0.000  0.833  0.333-  78 2.53  87 2.53  93 2.53  45 2.53
 192  0.833  0.000  0.333-  76 2.53  85 2.53  93 2.53  46 2.53
 193  1.000  0.333  0.833-  80 2.53  94 2.53  89 2.53  47 2.53
 194  0.834  0.333  0.000-  94 2.53  48 2.53  75 2.53  84 2.53
 195  1.000  0.667  0.167-  91 2.53  95 2.53  78 2.53  51 2.53
 196  0.333  1.000  0.833-  79 2.53  96 2.53  88 2.53  49 2.53
 197  0.333  0.834  0.000-  96 2.53  50 2.53  77 2.53  86 2.53
 198  0.667  1.000  0.167-  90 2.53  97 2.53  76 2.53  53 2.53
 199  1.000  0.167  0.666-  98 2.53  80 2.53  92 2.53  52 2.54
 200  0.667  0.166  0.000-  99 2.53  54 2.53  75 2.53  90 2.53
 201  0.000  0.333  0.167-  84 2.53 103 2.53  72 2.53  67 2.53
 202  0.167  1.000  0.666- 100 2.53  79 2.53  92 2.53  55 2.54
 203  1.000  0.167  0.333-  72 2.53  85 2.53 104 2.53  68 2.53
 204  0.166  0.667  0.000- 101 2.53  56 2.53  77 2.53  91 2.53
 205  0.333  0.000  0.167-  86 2.53 102 2.53  73 2.53  64 2.53
 206  0.167  1.000  0.333-  73 2.53  87 2.53 104 2.53  66 2.53
 207  0.333  0.166  0.000-  74 2.53  88 2.53 102 2.53  63 2.53
 208  0.166  0.333  0.000-  74 2.53  89 2.53 103 2.53  65 2.53
 209  0.000  0.000  0.499-  81 2.52  92 2.52  87 2.53  85 2.53
 210  0.000  0.500  0.999-  84 2.52  91 2.52  89 2.53  82 2.53
 211  0.500  0.000  0.999-  86 2.52  90 2.52  88 2.53  83 2.53
 212  0.000  0.000  0.833- 105 2.53 108 2.53  98 2.53 100 2.53
 213  0.000  0.833  0.000- 107 2.53 105 2.53 101 2.53  95 2.53
 214  0.833  0.000  0.000- 106 2.53 105 2.53  99 2.53  97 2.53
 215  0.000  0.000  0.167- 106 2.53 107 2.53  93 2.53 104 2.53
 216  1.000  0.167  0.000- 106 2.53 108 2.53  94 2.53 103 2.53
 217  0.167  1.000  0.000- 107 2.53 108 2.53  96 2.53 102 2.53
 
  LATTYP: Found a simple cubic cell.
 ALAT       =    17.5612749176
  
  Lattice vectors:
  
 A1 = (  17.5612749176,   0.0000000000,   0.0000000000)
 A2 = (   0.0000000000,  17.5612749176,   0.0000000000)
 A3 = (   0.0000000000,   0.0000000000,  17.5612749176)


Analysis of symmetry for initial positions (statically):
=====================================================================
 Subroutine PRICEL returns:
 Original cell was already a primitive cell.
 

 Routine SETGRP: Setting up the symmetry group for a 
 simple cubic supercell.


 Subroutine GETGRP returns: Found  4 space group operations
 (whereof  4 operations were pure point group operations)
 out of a pool of 48 trial point group operations.


The static configuration has the point symmetry C_2v.


Analysis of symmetry for dynamics (positions and initial velocities):
=====================================================================
 Subroutine PRICEL returns:
 Original cell was already a primitive cell.
 

 Routine SETGRP: Setting up the symmetry group for a 
 simple cubic supercell.


 Subroutine GETGRP returns: Found  4 space group operations
 (whereof  4 operations were pure point group operations)
 out of a pool of 48 trial point group operations.


The dynamic configuration has the point symmetry C_2v.


 Subroutine INISYM returns: Found  4 space group operations
 (whereof  4 operations are pure point group operations),
 and found     1 'primitive' translations

 
 
 KPOINTS: K-Points                                

Automatic generation of k-mesh.
Space group operators:
 irot       det(A)        alpha          n_x          n_y          n_z        tau_x        tau_y        tau_z
    1     1.000000     0.000000     1.000000     0.000000     0.000000     0.000000     0.000000     0.000000
    2     1.000000   180.000000     0.000000     0.000000     1.000000     0.000000     0.000000     0.000000
    3    -1.000000   180.000000     0.707107     0.707107     0.000000     0.000000     0.000000     0.000000
    4    -1.000000   180.000000     0.707107    -0.707107     0.000000     0.000000     0.000000     0.000000
 
 Subroutine IBZKPT returns following result:
 ===========================================
 
 Found      8 irreducible k-points:
 
 Following reciprocal coordinates:
            Coordinates               Weight
  0.000000  0.000000  0.000000      1.000000
  0.333333  0.000000  0.000000      4.000000
  0.333333  0.333333  0.000000      2.000000
 -0.333333  0.333333  0.000000      2.000000
  0.000000  0.000000  0.333333      2.000000
  0.333333  0.000000  0.333333      8.000000
  0.333333  0.333333  0.333333      4.000000
 -0.333333  0.333333  0.333333      4.000000
 
 Following cartesian coordinates:
            Coordinates               Weight
  0.000000  0.000000  0.000000      1.000000
  0.018981  0.000000  0.000000      4.000000
  0.018981  0.018981  0.000000      2.000000
 -0.018981  0.018981  0.000000      2.000000
  0.000000  0.000000  0.018981      2.000000
  0.018981  0.000000  0.018981      8.000000
  0.018981  0.018981  0.018981      4.000000
 -0.018981  0.018981  0.018981      4.000000
 


--------------------------------------------------------------------------------------------------------




 Dimension of arrays:
   k-points           NKPTS =      8   k-points in BZ     NKDIM =      8   number of bands    NBANDS=   1728
   number of dos      NEDOS =    301   number of ions     NIONS =    217
   non local maximal  LDIM  =      9   non local SUM 2l+1 LMDIM =     37
   total plane-waves  NPLWV = ******
   max r-space proj   IRMAX =      1   max aug-charges    IRDMAX=   7705
   dimension x,y,z NGX =   150 NGY =  150 NGZ =  150
   dimension x,y,z NGXF=   196 NGYF=  196 NGZF=  196
   support grid    NGXF=   196 NGYF=  196 NGZF=  196
   ions per type =             108 109
   NGX,Y,Z   is equivalent  to a cutoff of  14.20, 14.20, 14.20 a.u.
   NGXF,Y,Z  is equivalent  to a cutoff of  18.55, 18.55, 18.55 a.u.

 SYSTEM =  unknown system                          
 POSCAR =  Initial State for  iIn_0_110pCs_tdA_sc3k

 Startparameter for this run:
   NWRITE =      2    write-flag & timer
   PREC   = high      normal or accurate (medium, high low for compatibility)
   ISTART =      0    job   : 0-new  1-cont  2-samecut
   ICHARG =      2    charge: 1-file 2-atom 10-const
   ISPIN  =      1    spin polarized calculation?
   LNONCOLLINEAR =      F non collinear calculations
   LSORBIT =      F    spin-orbit coupling
   INIWAV =      1    electr: 0-lowe 1-rand  2-diag
   LASPH  =      F    aspherical Exc in radial PAW
   METAGGA=      F    non-selfconsistent MetaGGA calc.

 Electronic Relaxation 1
   ENCUT  =  650.0 eV  47.77 Ry    6.91 a.u.  36.51 36.51 36.51*2*pi/ulx,y,z
   ENINI  =  650.0     initial cutoff
   ENAUG  =  662.6 eV  augmentation charge cutoff
   NELM   =     60;   NELMIN=  2; NELMDL= -5     # of ELM steps 
   EDIFF  = 0.1E-05   stopping-criterion for ELM
   LREAL  =      F    real-space projection
   NLSPLINE    = F    spline interpolate recip. space projectors
   LCOMPAT=      F    compatible to vasp.4.4
   GGA_COMPAT  = T    GGA compatible to vasp.4.4-vasp.4.6
   LMAXPAW     = -100 max onsite density
   LMAXMIX     =    2 max onsite mixed and CHGCAR
   VOSKOWN=      0    Vosko Wilk Nusair interpolation
   ROPT   =    0.00000   0.00000
 Ionic relaxation
   EDIFFG = 0.1E-03   stopping-criterion for IOM
   NSW    =    100    number of steps for IOM
   NBLOCK =      1;   KBLOCK =      1    inner block; outer block 
   IBRION =      2    ionic relax: 0-MD 1-quasi-New 2-CG
   NFREE  =      0    steps in history (QN), initial steepest desc. (CG)
   ISIF   =      2    stress and relaxation
   IWAVPR =     11    prediction:  0-non 1-charg 2-wave 3-comb
   ISYM   =      2    0-nonsym 1-usesym 2-fastsym
   LCORR  =      T    Harris-Foulkes like correction to forces

   POTIM  = 0.5000    time-step for ionic-motion
   TEIN   =    0.0    initial temperature
   TEBEG  = 3500.0;   TEEND  =3500.0 temperature during run
   SMASS  =  -3.00    Nose mass-parameter (am)
   estimated Nose-frequenzy (Omega)   =  0.10E-29 period in steps =****** mass=  -0.705E-26a.u.
   SCALEE = 1.0000    scale energy and forces
   NPACO  =    256;   APACO  = 16.0  distance and # of slots for P.C.
   PSTRESS=   -7.8 pullay stress

  Mass of Ions in am
   POMASS = 114.82 30.97
  Ionic Valenz
   ZVAL   =  13.00  5.00
  Atomic Wigner-Seitz radii
   RWIGS  =  -1.00 -1.00
  virtual crystal weights 
   VCA    =   1.00  1.00
   NELECT =    1949.0000    total number of electrons
   NUPDOWN=      -1.0000    fix difference up-down

 DOS related values:
   EMIN   =  10.00;   EMAX   =-10.00  energy-range for DOS
   EFERMI =   0.00
   ISMEAR =     0;   SIGMA  =   0.10  broadening in eV -4-tet -1-fermi 0-gaus

 Electronic relaxation 2 (details)
   IALGO  =     38    algorithm
   LDIAG  =      T    sub-space diagonalisation (order eigenvalues)
   LSUBROT=      F    optimize rotation matrix (better conditioning)
   TURBO    =      0    0=normal 1=particle mesh
   IRESTART =      0    0=no restart 2=restart with 2 vectors
   NREBOOT  =      0    no. of reboots
   NMIN     =      0    reboot dimension
   EREF     =   0.00    reference energy to select bands
   IMIX   =      4    mixing-type and parameters
     AMIX     =   0.40;   BMIX     =  1.00
     AMIX_MAG =   1.60;   BMIX_MAG =  1.00
     AMIN     =   0.10
     WC   =   100.;   INIMIX=   1;  MIXPRE=   1;  MAXMIX= -45

 Intra band minimization:
   WEIMIN = 0.0010     energy-eigenvalue tresh-hold
   EBREAK =  0.14E-09  absolut break condition
   DEPER  =   0.30     relativ break condition  

   TIME   =   0.40     timestep for ELM

  volume/ion in A,a.u.               =      24.96       168.42
  Fermi-wavevector in a.u.,A,eV,Ry     =   1.164455  2.200501 18.448896  1.355956
  Thomas-Fermi vector in A             =   2.300993
 
 Write flags
   LWAVE        =      T    write WAVECAR
   LDOWNSAMPLE  =      F    k-point downsampling of WAVECAR
   LCHARG       =      T    write CHGCAR
   LVTOT        =      F    write LOCPOT, total local potential
   LVHAR        =      F    write LOCPOT, Hartree potential only
   LELF         =      F    write electronic localiz. function (ELF)
   LORBIT       =      0    0 simple, 1 ext, 2 COOP (PROOUT), +10 PAW based schemes


 Dipole corrections
   LMONO  =      F    monopole corrections only (constant potential shift)
   LDIPOL =      F    correct potential (dipole corrections)
   IDIPOL =      0    1-x, 2-y, 3-z, 4-all directions 
   EPSILON=  1.0000000 bulk dielectric constant

 Exchange correlation treatment:
   GGA     =    --    GGA type
   LEXCH   =     2    internal setting for exchange type
   VOSKOWN=      0    Vosko Wilk Nusair interpolation
   LHFCALC =     F    Hartree Fock is set to
   LHFONE  =     F    Hartree Fock one center treatment
   AEXX    =    0.0000 exact exchange contribution

 Linear response parameters
   LEPSILON=     F    determine dielectric tensor
   LRPA    =     F    only Hartree local field effects (RPA)
   LNABLA  =     F    use nabla operator in PAW spheres
   LVEL    =     F    velocity operator in full k-point grid
   LINTERFAST=   F  fast interpolation
   KINTER  =     0    interpolate to denser k-point grid
   CSHIFT  =0.1000    complex shift for real part using Kramers Kronig
   OMEGAMAX=  -1.0    maximum frequency
   DEG_THRESHOLD= 0.2000000E-02 threshold for treating states as degnerate
   RTIME   =   -0.100 relaxation time in fs
  (WPLASMAI=    0.000 imaginary part of plasma frequency in eV, 0.658/RTIME)
   DFIELD  = 0.0000000 0.0000000 0.0000000 field for delta impulse in time
 
 Orbital magnetization related:
   ORBITALMAG=     F  switch on orbital magnetization
   LCHIMAG   =     F  perturbation theory with respect to B field
   DQ        =  0.001000  dq finite difference perturbation B field
   LLRAUG    =     F  two centre corrections for induced B field



--------------------------------------------------------------------------------------------------------


 conjugate gradient relaxation of ions
 charge density and potential will be updated during run
 non-spin polarized calculation
 Variant of blocked Davidson
 Davidson routine will perform the subspace rotation
 perform sub-space diagonalisation
    after iterative eigenvector-optimisation
 modified Broyden-mixing scheme, WC =      100.0
 initial mixing is a Kerker type mixing with AMIX =  0.4000 and BMIX =      1.0000
 Hartree-type preconditioning will be used
 using additional bands          753
 reciprocal scheme for non local part
 use partial core corrections
 calculate Harris-corrections to forces 
   (improved forces if not selfconsistent)
 use of overlap-Matrix (Vanderbilt PP)
 Gauss-broadening in eV      SIGMA  =   0.10


--------------------------------------------------------------------------------------------------------


  energy-cutoff  :      650.00
  volume of cell :     5415.87
      direct lattice vectors                 reciprocal lattice vectors
    17.561274918  0.000000000  0.000000000     0.056943474  0.000000000  0.000000000
     0.000000000 17.561274918  0.000000000     0.000000000  0.056943474  0.000000000
     0.000000000  0.000000000 17.561274918     0.000000000  0.000000000  0.056943474

  length of vectors
    17.561274918 17.561274918 17.561274918     0.056943474  0.056943474  0.056943474


 
 k-points in units of 2pi/SCALE and weight: K-Points                                
   0.00000000  0.00000000  0.00000000       0.037
   0.01898116  0.00000000  0.00000000       0.148
   0.01898116  0.01898116  0.00000000       0.074
  -0.01898116  0.01898116  0.00000000       0.074
   0.00000000  0.00000000  0.01898116       0.074
   0.01898116  0.00000000  0.01898116       0.296
   0.01898116  0.01898116  0.01898116       0.148
  -0.01898116  0.01898116  0.01898116       0.148
 
 k-points in reciprocal lattice and weights: K-Points                                
   0.00000000  0.00000000  0.00000000       0.037
   0.33333333  0.00000000  0.00000000       0.148
   0.33333333  0.33333333  0.00000000       0.074
  -0.33333333  0.33333333  0.00000000       0.074
   0.00000000  0.00000000  0.33333333       0.074
   0.33333333  0.00000000  0.33333333       0.296
   0.33333333  0.33333333  0.33333333       0.148
  -0.33333333  0.33333333  0.33333333       0.148
 
 position of ions in fractional coordinates (direct lattice) 
   0.59123723  0.59123723  0.59444529
   0.58951667  0.41048333  0.40799969
   0.41048333  0.58951667  0.40799969
   0.40876277  0.40876277  0.59444529
   0.74882002  0.58414928  0.41794977
   0.75019507  0.41800413  0.58365157
   0.58414928  0.74882002  0.41794977
   0.58357030  0.41642970  0.75316552
   0.41800413  0.75019507  0.58365157
   0.41642970  0.58357030  0.75316552
   0.58322157  0.58322157  0.24945579
   0.58199587  0.24980493  0.58365157
   0.24980493  0.58199587  0.58365157
   0.41677843  0.41677843  0.24945579
   0.41585072  0.25117998  0.41794977
   0.25117998  0.41585072  0.41794977
   0.75444228  0.75444228  0.58395822
   0.75208267  0.58419811  0.75232103
   0.58419811  0.75208267  0.75232103
   0.75283563  0.41656538  0.24651324
   0.74971258  0.25028742  0.41646563
   0.41656538  0.75283563  0.24651324
   0.25028742  0.74971258  0.41646563
   0.41580189  0.24791733  0.75232103
   0.24791733  0.41580189  0.75232103
   0.58343462  0.24716437  0.24651324
   0.24716437  0.58343462  0.24651324
   0.24555772  0.24555772  0.58395822
   0.91672972  0.58370145  0.58349830
   0.58370145  0.91672972  0.58349830
   0.58390152  0.58390152  0.91762370
   0.91635677  0.41675012  0.41658069
   0.75009400  0.75009400  0.25029048
   0.74997026  0.25002974  0.74999452
   0.41675012  0.91635677  0.41658069
   0.41609848  0.41609848  0.91762370
   0.25002974  0.74997026  0.74999452
   0.58364221  0.41635779  0.08328055
   0.41635779  0.58364221  0.08328055
   0.58324988  0.08364323  0.41658069
   0.41629855  0.08327028  0.58349830
   0.08364323  0.58324988  0.41658069
   0.08327028  0.41629855  0.58349830
   0.24990600  0.24990600  0.25029048
   0.91689816  0.74988776  0.41635417
   0.74988776  0.91689816  0.41635417
   0.91680545  0.41660797  0.74991376
   0.75066430  0.41672471  0.91733591
   0.41660797  0.91680545  0.74991376
   0.41672471  0.75066430  0.91733591
   0.91680566  0.58362239  0.25029156
   0.91645070  0.25016068  0.58323040
   0.58362239  0.91680566  0.25029156
   0.58327529  0.24933570  0.91733591
   0.25016068  0.91645070  0.58323040
   0.24933570  0.58327529  0.91733591
   0.75041294  0.58387380  0.08318261
   0.58387380  0.75041294  0.08318261
   0.74983932  0.08354930  0.58323040
   0.58339203  0.08319455  0.74991376
   0.08354930  0.74983932  0.58323040
   0.08319455  0.58339203  0.74991376
   0.41612620  0.24958706  0.08318261
   0.41637761  0.08319434  0.25029156
   0.24958706  0.41612620  0.08318261
   0.25011224  0.08310184  0.41635417
   0.08319434  0.41637761  0.25029156
   0.08310184  0.25011224  0.41635417
   0.91747511  0.75040935  0.75027333
   0.75040935  0.91747511  0.75027333
   0.75084840  0.75084840  0.91703409
   0.91656734  0.24971312  0.24998688
   0.24971312  0.91656734  0.24998688
   0.24915160  0.24915160  0.91703409
   0.75043562  0.24956438  0.08269441
   0.75028688  0.08343266  0.24998688
   0.24956438  0.75043562  0.08269441
   0.08343266  0.75028688  0.24998688
   0.24959065  0.08252489  0.75027333
   0.08252489  0.24959065  0.75027333
   0.91790374  0.91790374  0.58345060
   0.91715960  0.58376865  0.91693735
   0.58376865  0.91715960  0.91693735
   0.91787187  0.41633650  0.08260619
   0.91641765  0.08358235  0.41645035
   0.41633650  0.91787187  0.08260619
   0.08358235  0.91641765  0.41645035
   0.41623135  0.08284040  0.91693735
   0.08284040  0.41623135  0.91693735
   0.58366350  0.08212813  0.08260619
   0.08212813  0.58366350  0.08260619
   0.08209626  0.08209626  0.58345060
   0.91675899  0.91675899  0.25012969
   0.91665844  0.24973512  0.91662538
   0.91685198  0.75034915  0.08367743
   0.24973512  0.91665844  0.91662538
   0.75034915  0.91685198  0.08367743
   0.91655465  0.08344535  0.75005357
   0.75026488  0.08334156  0.91662538
   0.08344535  0.91655465  0.75005357
   0.08334156  0.75026488  0.91662538
   0.24965085  0.08314802  0.08367743
   0.08314802  0.24965085  0.08367743
   0.08324101  0.08324101  0.25012969
   0.91687376  0.91687376  0.91676494
   0.91675174  0.08324826  0.08340650
   0.08324826  0.91675174  0.08340650
   0.08312624  0.08312624  0.91676494
   0.54368662  0.54368662  0.47119072
   0.45631338  0.45631338  0.47119072
   0.67179371  0.67179371  0.50308343
   0.66889620  0.49911700  0.67124761
   0.49911700  0.66889620  0.67124761
   0.67051891  0.49995078  0.32916757
   0.66646632  0.33353368  0.50141185
   0.49995078  0.67051891  0.32916757
   0.50088300  0.33110380  0.67124761
   0.33353368  0.66646632  0.50141185
   0.33110380  0.50088300  0.67124761
   0.50004922  0.32948109  0.32916757
   0.32948109  0.50004922  0.32916757
   0.32820629  0.32820629  0.50308343
   0.83323234  0.50051076  0.49995586
   0.50051076  0.83323234  0.49995586
   0.50000000  0.50000000  0.83532061
   0.50000000  0.50000000  0.16610316
   0.49948924  0.16676766  0.49995586
   0.16676766  0.49948924  0.49995586
   0.83411470  0.66735155  0.66724916
   0.66735155  0.83411470  0.66724916
   0.66728719  0.66728719  0.83430526
   0.83299029  0.66640131  0.33366299
   0.66640131  0.83299029  0.33366299
   0.83305040  0.33355404  0.66658412
   0.66735795  0.33264205  0.83476522
   0.33355404  0.83305040  0.66658412
   0.33264205  0.66735795  0.83476522
   0.83331333  0.33337911  0.33295159
   0.66689789  0.66689789  0.16658618
   0.66644596  0.16694960  0.66658412
   0.33337911  0.83331333  0.33295159
   0.33271281  0.33271281  0.83430526
   0.16694960  0.66644596  0.66658412
   0.66732878  0.33267122  0.16572164
   0.66662089  0.16668667  0.33295159
   0.33267122  0.66732878  0.16572164
   0.16668667  0.66662089  0.33295159
   0.33264845  0.16588530  0.66724916
   0.16588530  0.33264845  0.66724916
   0.33310211  0.33310211  0.16658618
   0.33359869  0.16700971  0.33366299
   0.16700971  0.33359869  0.33366299
   0.83593612  0.83593612  0.49915942
   0.83453048  0.49979890  0.83435419
   0.49979890  0.83453048  0.83435419
   0.83545261  0.50067101  0.16473816
   0.83302834  0.16697166  0.49981627
   0.50067101  0.83545261  0.16473816
   0.50020110  0.16546952  0.83435419
   0.16697166  0.83302834  0.49981627
   0.16546952  0.50020110  0.83435419
   0.49932899  0.16454739  0.16473816
   0.16454739  0.49932899  0.16473816
   0.16406388  0.16406388  0.49915942
   0.00019887  0.66660047  0.49987948
   0.00000000  0.50000000  0.66653856
   0.66660047  0.00019887  0.49987948
   0.50000000  0.00000000  0.66653856
   0.66710025  0.50006683  0.00033438
   0.50006683  0.66710025  0.00033438
   0.00000000  0.50000000  0.33348773
   0.99980113  0.33339953  0.49987948
   0.50000000  0.00000000  0.33348773
   0.33339953  0.99980113  0.49987948
   0.49993317  0.33289975  0.00033438
   0.33289975  0.49993317  0.00033438
   0.83380036  0.83380036  0.83316529
   0.83342448  0.83342448  0.16695262
   0.83330615  0.16669385  0.83325609
   0.16669385  0.83330615  0.83325609
   0.83340687  0.16659313  0.16651499
   0.16659313  0.83340687  0.16651499
   0.16619964  0.16619964  0.83316529
   0.16657552  0.16657552  0.16695262
   0.00042422  0.83349113  0.66648311
   0.00034256  0.66688577  0.83341019
   0.83349113  0.00042422  0.66648311
   0.83382613  0.66716766  0.00004068
   0.66688577  0.00034256  0.83341019
   0.66716766  0.83382613  0.00004068
   0.00012369  0.83335044  0.33316794
   0.83335044  0.00012369  0.33316794
   0.99965744  0.33311423  0.83341019
   0.83391494  0.33309098  0.00006331
   0.99999266  0.66693930  0.16692051
   0.33311423  0.99965744  0.83341019
   0.33309098  0.83391494  0.00006331
   0.66693930  0.99999266  0.16692051
   0.99957578  0.16650887  0.66648311
   0.66690902  0.16608506  0.00006331
   0.00000734  0.33306070  0.16692051
   0.16650887  0.99957578  0.66648311
   0.99987631  0.16664956  0.33316794
   0.16608506  0.66690902  0.00006331
   0.33306070  0.00000734  0.16692051
   0.16664956  0.99987631  0.33316794
   0.33283234  0.16617387  0.00004068
   0.16617387  0.33283234  0.00004068
   0.00000000  0.00000000  0.49917258
   0.00000000  0.50000000  0.99939528
   0.50000000  0.00000000  0.99939528
   0.00000000  0.00000000  0.83318019
   0.00004748  0.83346828  0.00004962
   0.83346828  0.00004748  0.00004962
   0.00000000  0.00000000  0.16673753
   0.99995252  0.16653172  0.00004962
   0.16653172  0.99995252  0.00004962
 
 position of ions in cartesian coordinates  (Angst):
  10.38287948 10.38287948 10.43921710
  10.35266428  7.20861064  7.16499480
   7.20861064 10.35266428  7.16499480
   7.17839544  7.17839544 10.43921710
  13.15023431 10.25840618  7.33973087
  13.17438191  7.34068549 10.24966563
  10.25840618 13.15023431  7.33973087
  10.24823839  7.31303652 13.22654675
   7.34068549 13.17438191 10.24966563
   7.31303652 10.24823839 13.22654675
  10.24211438 10.24211438  4.38076177
  10.22058943  4.38689301 10.24966563
   4.38689301 10.22058943 10.24966563
   7.31916053  7.31916053  4.38076177
   7.30286874  4.41104060  7.33973087
   4.41104060  7.30286874  7.33973087
  13.24896834 13.24896834 10.25505075
  13.20753054 10.25926355 13.21171643
  10.25926355 13.20753054 13.21171643
  13.22075343  7.31541918  4.32908682
  13.16590869  4.39536623  7.31366746
   7.31541918 13.22075343  4.32908682
   4.39536623 13.16590869  7.31366746
   7.30201136  4.35374438 13.21171643
   4.35374438  7.30201136 13.21171643
  10.24585574  4.34052148  4.32908682
   4.34052148 10.24585574  4.32908682
   4.31230658  4.31230658 10.25505075
  16.09894264 10.25054165 10.24697398
  10.25054165 16.09894264 10.24697398
  10.25405520 10.25405520 16.11464206
  16.09239321  7.31866342  7.31568810
  13.17260688 13.17260688  4.39541990
  13.17043387  4.39084104 13.17085997
   7.31866342 16.09239321  7.31568810
   7.30721972  7.30721972 16.11464206
   4.39084104 13.17043387 13.17085997
  10.24950130  7.31177362  1.46251264
   7.31177362 10.24950130  1.46251264
  10.24261149  1.46888171  7.31568810
   7.31073327  1.46233228 10.24697398
   1.46888171 10.24261149  7.31568810
   1.46233228  7.31073327 10.24697398
   4.38866804  4.38866804  4.39541990
  16.10190063 13.16898515  7.31171007
  13.16898515 16.10190063  7.31171007
  16.10027264  7.31616717 13.16944169
  13.18262213  7.31821716 16.10958812
   7.31616717 16.10027264 13.16944169
   7.31821716 13.18262213 16.10958812
  16.10027630 10.24915318  4.39543894
  16.09404274  4.39314050 10.24226934
  10.24915318 16.10027630  4.39543894
  10.24305776  4.37865278 16.10958812
   4.39314050 16.09404274 10.24226934
   4.37865278 10.24305776 16.10958812
  13.17820794 10.25356832  1.46079264
  10.25356832 13.17820794  1.46079264
  13.16813442  1.46723218 10.24226934
  10.24510775  1.46100228 13.16944169
   1.46723218 13.16813442 10.24226934
   1.46100228 10.24510775 13.16944169
   7.30770660  4.38306697  1.46079264
   7.31212173  1.46099862  4.39543894
   4.38306697  7.30770660  1.46079264
   4.39228976  1.45937429  7.31171007
   1.46099862  7.31212173  4.39543894
   1.45937429  4.39228976  7.31171007
  16.11203266 13.17814490 13.17575620
  13.17814490 16.11203266 13.17575620
  13.18585513 13.18585513 16.10428772
  16.09609103  4.38528082  4.39008837
   4.38528082 16.09609103  4.39008837
   4.37541978  4.37541978 16.10428772
  13.17860623  4.38266869  1.45221929
  13.17599409  1.46518389  4.39008837
   4.38266869 13.17860623  1.45221929
   1.46518389 13.17599409  4.39008837
   4.38313002  1.44924226 13.17575620
   1.44924226  4.38313002 13.17575620
  16.11955992 16.11955992 10.24613642
  16.10649188 10.25172172 16.10258892
  10.25172172 16.10649188 16.10258892
  16.11900016  7.31139974  1.45066999
  16.09346236  1.46781256  7.31339904
   7.31139974 16.11900016  1.45066999
   1.46781256 16.09346236  7.31339904
   7.30955319  1.45478303 16.10258892
   1.45478303  7.30955319 16.10258892
  10.24987517  1.44227476  1.45066999
   1.44227476 10.24987517  1.45066999
   1.44171499  1.44171499 10.24613642
  16.09945663 16.09945663  4.39259633
  16.09769088  4.38566711 16.09711035
  16.10108976 13.17708771  1.46948232
   4.38566711 16.09769088 16.09711035
  13.17708771 16.10108976  1.46948232
  16.09586819  1.46540673 13.17189695
  13.17560781  1.46358403 16.09711035
   1.46540673 16.09586819 13.17189695
   1.46358403 13.17560781 16.09711035
   4.38418721  1.46018516  1.46948232
   1.46018516  4.38418721  1.46948232
   1.46181829  1.46181829  4.39259633
  16.10147216 16.10147216 16.09956115
  16.09932934  1.46194558  1.46472443
   1.46194558 16.09932934  1.46472443
   1.45980275  1.45980275 16.09956115
   9.54783023  9.54783023  8.27470971
   8.01344468  8.01344468  8.27470971
  11.79755410 11.79755410  8.83478635
  11.74667003  8.76513085 11.78796384
   8.76513085 11.74667003 11.78796384
  11.77516699  8.77977312  5.78060215
  11.70399827  5.85727664  8.80543133
   8.77977312 11.77516699  5.78060215
   8.79614407  5.81460488 11.78796384
   5.85727664 11.70399827  8.80543133
   5.81460488  8.79614407 11.78796384
   8.78150180  5.78610793  5.78060215
   5.78610793  8.78150180  5.78060215
   5.76372082  5.76372082  8.83478635
  14.63262225  8.78960707  8.77986229
   8.78960707 14.63262225  8.77986229
   8.78063746  8.78063746 14.66929489
   8.78063746  8.78063746  2.91698322
   8.77166784  2.92865267  8.77986229
   2.92865267  8.77166784  8.77986229
  14.64811752 11.71954398 11.71774591
  11.71954398 14.64811752 11.71774591
  11.71841383 11.71841383 14.65146397
  14.62837156 11.70285659  5.85954750
  11.70285659 14.62837156  5.85954750
  14.62942705  5.85763416 11.70606701
  11.71965649  5.84161842 14.65954146
   5.85763416 14.62942705 11.70606701
   5.84161842 11.71965649 14.65954146
  14.63404450  5.85456217  5.84705438
  11.71157726 11.71157726  2.92546571
  11.70364075  2.93184786 11.70606701
   5.85456217 14.63404450  5.84705438
   5.84286109  5.84286109 14.65146397
   2.93184786 11.70364075 11.70606701
  11.71914419  5.84213072  2.91028335
  11.70671274  2.92723041  5.84705438
   5.84213072 11.71914419  2.91028335
   2.92723041 11.70671274  5.84705438
   5.84173094  2.91315740 11.71774591
   2.91315740  5.84173094 11.71774591
   5.84969766  5.84969766  2.92546571
   5.85841832  2.93290336  5.85954750
   2.93290336  5.85841832  5.85954750
  14.68010406 14.68010406  8.76587572
  14.65541915  8.77710590 14.65232339
   8.77710590 14.65541915 14.65232339
  14.67161296  8.79242131  2.89301205
  14.62903974  2.93223518  8.77741101
   8.79242131 14.67161296  2.89301205
   8.78416902  2.90585577 14.65232339
   2.93223518 14.62903974  8.77741101
   2.90585577  8.78416902 14.65232339
   8.76885361  2.88966196  2.89301205
   2.88966196  8.76885361  2.89301205
   2.88117086  2.88117086  8.76587572
   0.00349238 11.70635404  8.77852095
   0.00000000  8.78063746 11.70526689
  11.70635404  0.00349238  8.77852095
   8.78063746  0.00000000 11.70526689
  11.71513095  8.78181108  0.00587217
   8.78181108 11.71513095  0.00587217
   0.00000000  8.78063746  5.85646978
  17.55778254  5.85492088  8.77852095
   8.78063746  0.00000000  5.85646978
   5.85492088 17.55778254  8.77852095
   8.77946384  5.84614397  0.00587217
   5.84614397  8.77946384  0.00587217
  14.64259743 14.64259743 14.63144468
  14.63599643 14.63599643  2.93190079
  14.63391840  2.92735651 14.63303923
   2.92735651 14.63391840 14.63303923
  14.63568724  2.92558768  2.92421560
   2.92558768 14.63568724  2.92421560
   2.91867748  2.91867748 14.63144468
   2.92527849  2.92527849  2.93190079
   0.00744982 14.63716687 11.70429318
   0.00601580 11.71136428 14.63574541
  14.63716687  0.00744982 11.70429318
  14.64304990 11.71631472  0.00071444
  11.71136428  0.00601580 14.63574541
  11.71631472 14.64304990  0.00071444
   0.00217212 14.63469620  5.85085385
  14.63469620  0.00217212  5.85085385
  17.55525912  5.84991064 14.63574541
  14.64460953  5.84950235  0.00111174
  17.56114600 11.71230445  2.93133691
   5.84991064 17.55525912 14.63574541
   5.84950235 14.64460953  0.00111174
  11.71230445 17.56114600  2.93133691
  17.55382510  2.92410804 11.70429318
  11.71177257  2.91666539  0.00111174
   0.00012892  5.84897047  2.93133691
   2.92410804 17.55382510 11.70429318
  17.55910280  2.92657871  5.85085385
   2.91666539 11.71177257  0.00111174
   5.84897047  0.00012892  2.93133691
   2.92657871 17.55910280  5.85085385
   5.84496019  2.91822502  0.00071444
   2.91822502  5.84496019  0.00071444
   0.00000000  0.00000000  8.76610686
   0.00000000  8.78063746 17.55065523
   8.78063746  0.00000000 17.55065523
   0.00000000  0.00000000 14.63170630
   0.00083384 14.63676563  0.00087143
  14.63676563  0.00083384  0.00087143
   0.00000000  0.00000000  2.92812358
  17.56044108  2.92450929  0.00087143
   2.92450929 17.56044108  0.00087143
 


--------------------------------------------------------------------------------------------------------


 k-point  1 :   0.0000 0.0000 0.0000  plane waves:  203965
 k-point  2 :   0.3333 0.0000 0.0000  plane waves:  203781
 k-point  3 :   0.3333 0.3333 0.0000  plane waves:  203862
 k-point  4 :  -0.3333 0.3333 0.0000  plane waves:  203862
 k-point  5 :   0.0000 0.0000 0.3333  plane waves:  203781
 k-point  6 :   0.3333 0.0000 0.3333  plane waves:  203862
 k-point  7 :   0.3333 0.3333 0.3333  plane waves:  203778
 k-point  8 :  -0.3333 0.3333 0.3333  plane waves:  203778

 maximum and minimum number of plane-waves per node :    203965   203778

 maximum number of plane-waves:    203965
 maximum index in each direction: 
   IXMAX=   36   IYMAX=   36   IZMAX=   36
   IXMIN=  -36   IYMIN=  -36   IZMIN=  -36


 serial   3D FFT for wavefunctions
 parallel 3D FFT for charge:
    minimum data exchange during FFTs selected (reduces bandwidth)


 total amount of memory used by VASP MPI-rank0  1956196. kBytes
=======================================================================

   base      :      30000. kBytes
   nonl-proj :    1678371. kBytes
   fftplans  :      15087. kBytes
   grid      :     137526. kBytes
   one-center:      14259. kBytes
   wavefun   :      80953. kBytes
 
     INWAV:  cpu time    0.0000: real time    0.0000
 Broyden mixing: mesh for mixing (old mesh)
   NGX = 73   NGY = 73   NGZ = 73
  (NGX  =196   NGY  =196   NGZ  =196)
  gives a total of 389017 points

 initial charge density was supplied:
 charge density of overlapping atoms calculated
 number of electron    1949.0000000 magnetization 
 keeping initial charge density in first step


--------------------------------------------------------------------------------------------------------


 Maximum index for augmentation-charges          413 (set IRDMAX)


--------------------------------------------------------------------------------------------------------


 First call to EWALD:  gamma=   0.101
 Maximum number of real-space cells 3x 3x 3
 Maximum number of reciprocal cells 3x 3x 3

    FEWALD:  cpu time    0.0081: real time    0.0086


--------------------------------------- Iteration      1(   1)  ---------------------------------------


    POTLOK:  cpu time    0.1666: real time    0.1965
    SETDIJ:  cpu time    0.0322: real time    0.0323
     EDDAV:  cpu time 2171.9380: real time 2172.7309
       DOS:  cpu time    0.0035: real time    0.0288
    --------------------------------------------
      LOOP:  cpu time 2172.1404: real time 2172.9885

 eigenvalue-minimisations  : 41472
 total energy-change (2. order) : 0.1618456E+05  (-0.8218184E+05)
 number of electron    1949.0000000 magnetization 
 augmentation part     1949.0000000 magnetization 

 Free energy of the ion-electron system (eV)
  ---------------------------------------------------
  alpha Z        PSCENC =      6025.86535497
  Ewald energy   TEWEN  =   -132294.76638701
  -Hartree energ DENC   =    -57385.25443216
  -exchange      EXHF   =         0.00000000
  -V(xc)+E(xc)   XCENC  =      4098.86582670
  PAW double counting   =    162828.12964700  -162617.09779396
  entropy T*S    EENTRO =        -0.33227384
  eigenvalues    EBANDS =      5651.90873495
  atomic energy  EATOM  =    189877.24264489
  Solvation  Ediel_sol  =         0.00000000
  ---------------------------------------------------
  free energy    TOTEN  =     16184.56132153 eV

  energy without entropy =    16184.89359537  energy(sigma->0) =    16184.72745845


--------------------------------------------------------------------------------------------------------




--------------------------------------- Iteration      1(   2)  ---------------------------------------


     EDDAV:  cpu time 3371.3638: real time 3372.5397
       DOS:  cpu time    0.0029: real time    0.0333
    --------------------------------------------
      LOOP:  cpu time 3371.3667: real time 3372.5730

 eigenvalue-minimisations  : 55296
 total energy-change (2. order) :-0.1530957E+05  (-0.1454189E+05)
 number of electron    1949.0000000 magnetization 
 augmentation part     1949.0000000 magnetization 

 Free energy of the ion-electron system (eV)
  ---------------------------------------------------
  alpha Z        PSCENC =      6025.86535497
  Ewald energy   TEWEN  =   -132294.76638701
  -Hartree energ DENC   =    -57385.25443216
  -exchange      EXHF   =         0.00000000
  -V(xc)+E(xc)   XCENC  =      4098.86582670
  PAW double counting   =    162828.12964700  -162617.09779396
  entropy T*S    EENTRO =        -0.05356813
  eigenvalues    EBANDS =     -9657.93708224
  atomic energy  EATOM  =    189877.24264489
  Solvation  Ediel_sol  =         0.00000000
  ---------------------------------------------------
  free energy    TOTEN  =       874.99421006 eV

  energy without entropy =      875.04777819  energy(sigma->0) =      875.02099412


--------------------------------------------------------------------------------------------------------




--------------------------------------- Iteration      1(   3)  ---------------------------------------


     EDDAV:  cpu time 3338.0877: real time 3339.2740
       DOS:  cpu time    0.0046: real time    0.0509
    --------------------------------------------
      LOOP:  cpu time 3338.0923: real time 3339.3249

 eigenvalue-minimisations  : 55296
 total energy-change (2. order) :-0.1874403E+04  (-0.1860852E+04)
 number of electron    1949.0000000 magnetization 
 augmentation part     1949.0000000 magnetization 

 Free energy of the ion-electron system (eV)
  ---------------------------------------------------
  alpha Z        PSCENC =      6025.86535497
  Ewald energy   TEWEN  =   -132294.76638701
  -Hartree energ DENC   =    -57385.25443216
  -exchange      EXHF   =         0.00000000
  -V(xc)+E(xc)   XCENC  =      4098.86582670
  PAW double counting   =    162828.12964700  -162617.09779396
  entropy T*S    EENTRO =        -0.05632497
  eigenvalues    EBANDS =    -11532.33719352
  atomic energy  EATOM  =    189877.24264489
  Solvation  Ediel_sol  =         0.00000000
  ---------------------------------------------------
  free energy    TOTEN  =      -999.40865807 eV

  energy without entropy =     -999.35233310  energy(sigma->0) =     -999.38049558


--------------------------------------------------------------------------------------------------------




--------------------------------------- Iteration      1(   4)  ---------------------------------------


     EDDAV:  cpu time 2947.1238: real time 2948.1816
       DOS:  cpu time    0.0029: real time    0.0398
    --------------------------------------------
      LOOP:  cpu time 2947.1267: real time 2948.2214

 eigenvalue-minimisations  : 50688
 total energy-change (2. order) :-0.8840838E+02  (-0.8830974E+02)
 number of electron    1949.0000000 magnetization 
 augmentation part     1949.0000000 magnetization 

 Free energy of the ion-electron system (eV)
  ---------------------------------------------------
  alpha Z        PSCENC =      6025.86535497
  Ewald energy   TEWEN  =   -132294.76638701
  -Hartree energ DENC   =    -57385.25443216
  -exchange      EXHF   =         0.00000000
  -V(xc)+E(xc)   XCENC  =      4098.86582670
  PAW double counting   =    162828.12964700  -162617.09779396
  entropy T*S    EENTRO =        -0.05635938
  eigenvalues    EBANDS =    -11620.74553648
  atomic energy  EATOM  =    189877.24264489
  Solvation  Ediel_sol  =         0.00000000
  ---------------------------------------------------
  free energy    TOTEN  =     -1087.81703544 eV

  energy without entropy =    -1087.76067605  energy(sigma->0) =    -1087.78885575


--------------------------------------------------------------------------------------------------------




--------------------------------------- Iteration      1(   5)  ---------------------------------------


     EDDAV:  cpu time 2746.7627: real time 2747.7467
       DOS:  cpu time    0.0043: real time    0.0315
    CHARGE:  cpu time    3.1634: real time    3.1640
    MIXING:  cpu time    0.0016: real time    0.0017
    --------------------------------------------
      LOOP:  cpu time 2749.9320: real time 2750.9439

 eigenvalue-minimisations  : 47232
 total energy-change (2. order) :-0.7153758E+01  (-0.7152326E+01)
 number of electron    1949.0000013 magnetization 
 augmentation part      648.0157809 magnetization 

 Broyden mixing:
  rms(total) = 0.69506E+01    rms(broyden)= 0.69506E+01
  rms(prec ) = 0.72161E+01
  weight for this iteration     100.00

 Free energy of the ion-electron system (eV)
  ---------------------------------------------------
  alpha Z        PSCENC =      6025.86535497
  Ewald energy   TEWEN  =   -132294.76638701
  -Hartree energ DENC   =    -57385.25443216
  -exchange      EXHF   =         0.00000000
  -V(xc)+E(xc)   XCENC  =      4098.86582670
  PAW double counting   =    162828.12964700  -162617.09779396
  entropy T*S    EENTRO =        -0.05636147
  eigenvalues    EBANDS =    -11627.89929245
  atomic energy  EATOM  =    189877.24264489
  Solvation  Ediel_sol  =         0.00000000
  ---------------------------------------------------
  free energy    TOTEN  =     -1094.97079350 eV

  energy without entropy =    -1094.91443203  energy(sigma->0) =    -1094.94261276


--------------------------------------------------------------------------------------------------------




--------------------------------------- Iteration      1(   6)  ---------------------------------------


    POTLOK:  cpu time    0.1197: real time    0.1488
    SETDIJ:  cpu time    0.0334: real time    0.0334
     EDDAV:  cpu time 3330.8470: real time 3332.0184
       DOS:  cpu time    0.0029: real time    0.0472
    CHARGE:  cpu time    3.1133: real time    3.1288
    MIXING:  cpu time    0.0016: real time    0.0021
    --------------------------------------------
      LOOP:  cpu time 3334.1179: real time 3335.3787

 eigenvalue-minimisations  : 55296
 total energy-change (2. order) : 0.4221862E+02  (-0.8290016E+01)
 number of electron    1949.0000013 magnetization 
 augmentation part      655.3551647 magnetization 

 Broyden mixing:
  rms(total) = 0.32332E+01    rms(broyden)= 0.32332E+01
  rms(prec ) = 0.33082E+01
  weight for this iteration     100.00

 eigenvalues of (default mixing * dielectric matrix)
  average eigenvalue GAMMA=   1.8002
  1.8002

 Free energy of the ion-electron system (eV)
  ---------------------------------------------------
  alpha Z        PSCENC =      6025.86535497
  Ewald energy   TEWEN  =   -132294.76638701
  -Hartree energ DENC   =    -56933.84594355
  -exchange      EXHF   =         0.00000000
  -V(xc)+E(xc)   XCENC  =      4101.11129095
  PAW double counting   =    169183.27027668  -168952.73514370
  entropy T*S    EENTRO =        -0.05645792
  eigenvalues    EBANDS =    -12058.83780927
  atomic energy  EATOM  =    189877.24264489
  Solvation  Ediel_sol  =         0.00000000
  ---------------------------------------------------
  free energy    TOTEN  =     -1052.75217395 eV

  energy without entropy =    -1052.69571604  energy(sigma->0) =    -1052.72394499


--------------------------------------------------------------------------------------------------------




--------------------------------------- Iteration      1(   7)  ---------------------------------------


    POTLOK:  cpu time    0.2925: real time    0.3186
    SETDIJ:  cpu time    0.0348: real time    0.0348
     EDDAV:  cpu time 3347.6485: real time 3348.8329
       DOS:  cpu time    0.0064: real time    0.0386
    CHARGE:  cpu time    3.1358: real time    3.1363
    MIXING:  cpu time    0.0013: real time    0.0013
    --------------------------------------------
      LOOP:  cpu time 3351.1193: real time 3352.3624

 eigenvalue-minimisations  : 55296
 total energy-change (2. order) : 0.3399661E+01  (-0.3320267E+01)
 number of electron    1949.0000013 magnetization 
 augmentation part      656.8397208 magnetization 

 Broyden mixing:
  rms(total) = 0.17617E+01    rms(broyden)= 0.17617E+01
  rms(prec ) = 0.17800E+01
  weight for this iteration     100.00

 eigenvalues of (default mixing * dielectric matrix)
  average eigenvalue GAMMA=   1.3579
  2.1543  0.5614

 Free energy of the ion-electron system (eV)
  ---------------------------------------------------
  alpha Z        PSCENC =      6025.86535497
  Ewald energy   TEWEN  =   -132294.76638701
  -Hartree energ DENC   =    -56889.49089593
  -exchange      EXHF   =         0.00000000
  -V(xc)+E(xc)   XCENC  =      4112.84148744
  PAW double counting   =    177464.93898007  -177305.09272486
  entropy T*S    EENTRO =        -0.05813576
  eigenvalues    EBANDS =    -12040.83283629
  atomic energy  EATOM  =    189877.24264489
  Solvation  Ediel_sol  =         0.00000000
  ---------------------------------------------------
  free energy    TOTEN  =     -1049.35251247 eV

  energy without entropy =    -1049.29437672  energy(sigma->0) =    -1049.32344459


--------------------------------------------------------------------------------------------------------




--------------------------------------- Iteration      1(   8)  ---------------------------------------


    POTLOK:  cpu time    0.1314: real time    0.1426
    SETDIJ:  cpu time    0.0335: real time    0.0335
     EDDAV:  cpu time 2950.5843: real time 2951.6387
       DOS:  cpu time    0.0094: real time    0.0375
    CHARGE:  cpu time    3.1253: real time    3.1376
    MIXING:  cpu time    0.0012: real time    0.0012
    --------------------------------------------
      LOOP:  cpu time 2953.8850: real time 2954.9910

 eigenvalue-minimisations  : 50688
 total energy-change (2. order) : 0.2620611E+00  (-0.1658483E+00)
 number of electron    1949.0000013 magnetization 
 augmentation part      656.4152839 magnetization 

 Broyden mixing:
  rms(total) = 0.14627E+01    rms(broyden)= 0.14627E+01
  rms(prec ) = 0.14740E+01
  weight for this iteration     100.00

 eigenvalues of (default mixing * dielectric matrix)
  average eigenvalue GAMMA=   1.8725
  2.9043  1.3565  1.3565

 Free energy of the ion-electron system (eV)
  ---------------------------------------------------
  alpha Z        PSCENC =      6025.86535497
  Ewald energy   TEWEN  =   -132294.76638701
  -Hartree energ DENC   =    -56916.90888388
  -exchange      EXHF   =         0.00000000
  -V(xc)+E(xc)   XCENC  =      4115.45168743
  PAW double counting   =    179706.22794340  -179570.02279143
  entropy T*S    EENTRO =        -0.05811069
  eigenvalues    EBANDS =    -11992.12190902
  atomic energy  EATOM  =    189877.24264489
  Solvation  Ediel_sol  =         0.00000000
  ---------------------------------------------------
  free energy    TOTEN  =     -1049.09045134 eV

  energy without entropy =    -1049.03234065  energy(sigma->0) =    -1049.06139599


--------------------------------------------------------------------------------------------------------




--------------------------------------- Iteration      1(   9)  ---------------------------------------


    POTLOK:  cpu time    0.1129: real time    0.1410
    SETDIJ:  cpu time    0.0324: real time    0.0324
     EDDAV:  cpu time 3351.2433: real time 3352.4149
       DOS:  cpu time    0.0031: real time    0.0499
    CHARGE:  cpu time    3.1521: real time    3.1543
    MIXING:  cpu time    0.0012: real time    0.0012
    --------------------------------------------
      LOOP:  cpu time 3354.5449: real time 3355.7936

 eigenvalue-minimisations  : 55296
 total energy-change (2. order) : 0.2843782E+00  (-0.5429084E-01)
 number of electron    1949.0000013 magnetization 
 augmentation part      656.1705055 magnetization 

 Broyden mixing:
  rms(total) = 0.32621E+00    rms(broyden)= 0.32621E+00
  rms(prec ) = 0.33813E+00
  weight for this iteration     100.00

 eigenvalues of (default mixing * dielectric matrix)
  average eigenvalue GAMMA=   1.5820
  2.3578  1.8339  1.0681  1.0681

 Free energy of the ion-electron system (eV)
  ---------------------------------------------------
  alpha Z        PSCENC =      6025.86535497
  Ewald energy   TEWEN  =   -132294.76638701
  -Hartree energ DENC   =    -56932.55178670
  -exchange      EXHF   =         0.00000000
  -V(xc)+E(xc)   XCENC  =      4118.56664866
  PAW double counting   =    182791.73613059  -182673.88089092
  entropy T*S    EENTRO =        -0.05796077
  eigenvalues    EBANDS =    -11960.95982681
  atomic energy  EATOM  =    189877.24264489
  Solvation  Ediel_sol  =         0.00000000
  ---------------------------------------------------
  free energy    TOTEN  =     -1048.80607311 eV

  energy without entropy =    -1048.74811234  energy(sigma->0) =    -1048.77709273


--------------------------------------------------------------------------------------------------------




--------------------------------------- Iteration      1(  10)  ---------------------------------------


    POTLOK:  cpu time    0.1269: real time    0.1427
    SETDIJ:  cpu time    0.0325: real time    0.0325
     EDDAV:  cpu time 3339.1850: real time 3340.3915
       DOS:  cpu time    0.0045: real time    0.0457
    CHARGE:  cpu time    3.1490: real time    3.1496
    MIXING:  cpu time    0.0029: real time    0.0029
    --------------------------------------------
      LOOP:  cpu time 3342.5009: real time 3343.7649

 eigenvalue-minimisations  : 55296
 total energy-change (2. order) : 0.1038277E+00  (-0.2860563E-01)
 number of electron    1949.0000013 magnetization 
 augmentation part      655.7050896 magnetization 

 Broyden mixing:
  rms(total) = 0.46518E-01    rms(broyden)= 0.46518E-01
  rms(prec ) = 0.47730E-01
  weight for this iteration     100.00

 eigenvalues of (default mixing * dielectric matrix)
  average eigenvalue GAMMA=   1.3587
  2.3805  1.8536  1.0803  0.9726  0.5066

 Free energy of the ion-electron system (eV)
  ---------------------------------------------------
  alpha Z        PSCENC =      6025.86535497
  Ewald energy   TEWEN  =   -132294.76638701
  -Hartree energ DENC   =    -56952.48294078
  -exchange      EXHF   =         0.00000000
  -V(xc)+E(xc)   XCENC  =      4117.69808831
  PAW double counting   =    182111.86511808  -181992.50064142
  entropy T*S    EENTRO =        -0.05785601
  eigenvalues    EBANDS =    -11941.56562640
  atomic energy  EATOM  =    189877.24264489
  Solvation  Ediel_sol  =         0.00000000
  ---------------------------------------------------
  free energy    TOTEN  =     -1048.70224538 eV

  energy without entropy =    -1048.64438937  energy(sigma->0) =    -1048.67331738


--------------------------------------------------------------------------------------------------------




--------------------------------------- Iteration      1(  11)  ---------------------------------------


    POTLOK:  cpu time    0.1201: real time    0.1472
    SETDIJ:  cpu time    0.0351: real time    0.0351
     EDDAV:  cpu time 2951.1707: real time 2952.2085
       DOS:  cpu time    0.0071: real time    0.0303
    CHARGE:  cpu time    3.1482: real time    3.1502
    MIXING:  cpu time    0.0013: real time    0.0013
    --------------------------------------------
      LOOP:  cpu time 2954.4825: real time 2955.5725

 eigenvalue-minimisations  : 50688
 total energy-change (2. order) :-0.5667120E-02  (-0.5239990E-02)
 number of electron    1949.0000013 magnetization 
 augmentation part      655.6079235 magnetization 

 Broyden mixing:
  rms(total) = 0.76694E-01    rms(broyden)= 0.76694E-01
  rms(prec ) = 0.77154E-01
  weight for this iteration     100.00

 eigenvalues of (default mixing * dielectric matrix)
  average eigenvalue GAMMA=   1.3447
  2.2848  1.5818  1.0763  1.0763  0.9414  1.1077

 Free energy of the ion-electron system (eV)
  ---------------------------------------------------
  alpha Z        PSCENC =      6025.86535497
  Ewald energy   TEWEN  =   -132294.76638701
  -Hartree energ DENC   =    -56952.90081663
  -exchange      EXHF   =         0.00000000
  -V(xc)+E(xc)   XCENC  =      4117.72150400
  PAW double counting   =    182109.85066273  -181990.48985189
  entropy T*S    EENTRO =        -0.05787733
  eigenvalues    EBANDS =    -11941.17314624
  atomic energy  EATOM  =    189877.24264489
  Solvation  Ediel_sol  =         0.00000000
  ---------------------------------------------------
  free energy    TOTEN  =     -1048.70791250 eV

  energy without entropy =    -1048.65003517  energy(sigma->0) =    -1048.67897384


--------------------------------------------------------------------------------------------------------




--------------------------------------- Iteration      1(  12)  ---------------------------------------


    POTLOK:  cpu time    0.1308: real time    0.1481
    SETDIJ:  cpu time    0.0331: real time    0.0331
     EDDAV:  cpu time 2949.7637: real time 2950.8199
       DOS:  cpu time    0.0029: real time    0.0639
    CHARGE:  cpu time    3.1851: real time    3.1857
    MIXING:  cpu time    0.0014: real time    0.0014
    --------------------------------------------
      LOOP:  cpu time 2953.1170: real time 2954.2521

 eigenvalue-minimisations  : 50688
 total energy-change (2. order) :-0.3040679E-03  (-0.2969484E-03)
 number of electron    1949.0000013 magnetization 
 augmentation part      655.6062790 magnetization 

 Broyden mixing:
  rms(total) = 0.24415E-01    rms(broyden)= 0.24415E-01
  rms(prec ) = 0.25263E-01
  weight for this iteration     100.00

 eigenvalues of (default mixing * dielectric matrix)
  average eigenvalue GAMMA=   1.5391
  2.6985  2.3166  1.4914  1.4914  1.1353  0.8204  0.8204

 Free energy of the ion-electron system (eV)
  ---------------------------------------------------
  alpha Z        PSCENC =      6025.86535497
  Ewald energy   TEWEN  =   -132294.76638701
  -Hartree energ DENC   =    -56952.23982660
  -exchange      EXHF   =         0.00000000
  -V(xc)+E(xc)   XCENC  =      4117.53392076
  PAW double counting   =    181994.34415573  -181874.81749437
  entropy T*S    EENTRO =        -0.05787994
  eigenvalues    EBANDS =    -11941.81270500
  atomic energy  EATOM  =    189877.24264489
  Solvation  Ediel_sol  =         0.00000000
  ---------------------------------------------------
  free energy    TOTEN  =     -1048.70821657 eV

  energy without entropy =    -1048.65033663  energy(sigma->0) =    -1048.67927660


--------------------------------------------------------------------------------------------------------




--------------------------------------- Iteration      1(  13)  ---------------------------------------


    POTLOK:  cpu time    0.2984: real time    0.3287
    SETDIJ:  cpu time    0.0323: real time    0.0323
     EDDAV:  cpu time 2767.3853: real time 2768.4017
       DOS:  cpu time    0.0030: real time    0.0439
    CHARGE:  cpu time    3.1312: real time    3.1331
    MIXING:  cpu time    0.0014: real time    0.0014
    --------------------------------------------
      LOOP:  cpu time 2770.8516: real time 2771.9412

 eigenvalue-minimisations  : 48384
 total energy-change (2. order) :-0.4386349E-03  (-0.7403807E-04)
 number of electron    1949.0000013 magnetization 
 augmentation part      655.5884356 magnetization 

 Broyden mixing:
  rms(total) = 0.28668E-01    rms(broyden)= 0.28668E-01
  rms(prec ) = 0.28728E-01
  weight for this iteration     100.00

 eigenvalues of (default mixing * dielectric matrix)
  average eigenvalue GAMMA=   1.4563
  2.7061  2.2388  1.5699  1.2099  1.2099  0.9543  0.9543  0.8075

 Free energy of the ion-electron system (eV)
  ---------------------------------------------------
  alpha Z        PSCENC =      6025.86535497
  Ewald energy   TEWEN  =   -132294.76638701
  -Hartree energ DENC   =    -56953.14515252
  -exchange      EXHF   =         0.00000000
  -V(xc)+E(xc)   XCENC  =      4117.39205325
  PAW double counting   =    181944.78549101  -181825.48586117
  entropy T*S    EENTRO =        -0.05788839
  eigenvalues    EBANDS =    -11940.53891023
  atomic energy  EATOM  =    189877.24264489
  Solvation  Ediel_sol  =         0.00000000
  ---------------------------------------------------
  free energy    TOTEN  =     -1048.70865520 eV

[...]
   1364      10.9120      0.00000
   1365      10.9215      0.00000
   1366      10.9285      0.00000
   1367      10.9398      0.00000
   1368      10.9602      0.00000
   1369      10.9698      0.00000
   1370      10.9745      0.00000
   1371      10.9883      0.00000
   1372      11.0136      0.00000
   1373      11.0431      0.00000
   1374      11.0670      0.00000
   1375      11.0776      0.00000
   1376      11.0855      0.00000
   1377      11.1044      0.00000
   1378      11.1199      0.00000
   1379      11.1725      0.00000
   1380      11.1894      0.00000
   1381      11.1995      0.00000
   1382      11.2129      0.00000
   1383      11.2362      0.00000
   1384      11.2463      0.00000
   1385      11.2611      0.00000
   1386      11.2707      0.00000
   1387      11.2875      0.00000
   1388      11.2989      0.00000
   1389      11.3189      0.00000
   1390      11.3580      0.00000
   1391      11.4040      0.00000
   1392      11.4264      0.00000
   1393      11.4327      0.00000
   1394      11.4433      0.00000
   1395      11.4464      0.00000
   1396      11.4497      0.00000
   1397      11.4877      0.00000
   1398      11.4881      0.00000
   1399      11.5115      0.00000
   1400      11.5157      0.00000
   1401      11.5397      0.00000
   1402      11.5926      0.00000
   1403      11.5943      0.00000
   1404      11.6137      0.00000
   1405      11.6150      0.00000
   1406      11.6414      0.00000
   1407      11.6567      0.00000
   1408      11.6635      0.00000
   1409      11.6802      0.00000
   1410      11.6854      0.00000
   1411      11.7074      0.00000
   1412      11.7318      0.00000
   1413      11.7434      0.00000
   1414      11.7491      0.00000
   1415      11.7797      0.00000
   1416      11.7837      0.00000
   1417      11.7861      0.00000
   1418      11.7888      0.00000
   1419      11.8073      0.00000
   1420      11.8106      0.00000
   1421      11.8287      0.00000
   1422      11.8393      0.00000
   1423      11.8495      0.00000
   1424      11.8561      0.00000
   1425      11.8737      0.00000
   1426      11.8746      0.00000
   1427      11.8771      0.00000
   1428      11.8807      0.00000
   1429      11.8869      0.00000
   1430      11.8878      0.00000
   1431      11.9022      0.00000
   1432      11.9041      0.00000
   1433      11.9120      0.00000
   1434      11.9139      0.00000
   1435      11.9162      0.00000
   1436      11.9192      0.00000
   1437      11.9292      0.00000
   1438      11.9293      0.00000
   1439      11.9359      0.00000
   1440      11.9392      0.00000
   1441      11.9475      0.00000
   1442      11.9481      0.00000
   1443      11.9518      0.00000
   1444      11.9533      0.00000
   1445      11.9635      0.00000
   1446      11.9662      0.00000
   1447      11.9671      0.00000
   1448      11.9781      0.00000
   1449      11.9971      0.00000
   1450      12.0209      0.00000
   1451      12.0408      0.00000
   1452      12.0454      0.00000
   1453      12.0703      0.00000
   1454      12.0806      0.00000
   1455      12.0922      0.00000
   1456      12.1201      0.00000
   1457      12.1450      0.00000
   1458      12.1570      0.00000
   1459      12.1938      0.00000
   1460      12.2257      0.00000
   1461      12.2383      0.00000
   1462      12.2463      0.00000
   1463      12.2954      0.00000
   1464      12.3016      0.00000
   1465      12.3231      0.00000
   1466      12.3607      0.00000
   1467      12.3664      0.00000
   1468      12.3795      0.00000
   1469      12.3801      0.00000
   1470      12.3986      0.00000
   1471      12.4112      0.00000
   1472      12.4422      0.00000
   1473      12.4551      0.00000
   1474      12.4852      0.00000
   1475      12.5179      0.00000
   1476      12.5407      0.00000
   1477      12.5589      0.00000
   1478      12.5609      0.00000
   1479      12.5920      0.00000
   1480      12.5960      0.00000
   1481      12.6091      0.00000
   1482      12.6141      0.00000
   1483      12.6221      0.00000
   1484      12.6243      0.00000
   1485      12.6301      0.00000
   1486      12.6320      0.00000
   1487      12.6413      0.00000
   1488      12.6476      0.00000
   1489      12.6530      0.00000
   1490      12.6679      0.00000
   1491      12.6967      0.00000
   1492      12.7239      0.00000
   1493      12.7510      0.00000
   1494      12.7706      0.00000
   1495      12.7845      0.00000
   1496      12.7983      0.00000
   1497      12.8245      0.00000
   1498      12.8305      0.00000
   1499      12.9051      0.00000
   1500      12.9093      0.00000
   1501      12.9166      0.00000
   1502      12.9169      0.00000
   1503      12.9215      0.00000
   1504      12.9278      0.00000
   1505      12.9296      0.00000
   1506      12.9341      0.00000
   1507      12.9350      0.00000
   1508      12.9447      0.00000
   1509      12.9451      0.00000
   1510      12.9596      0.00000
   1511      12.9631      0.00000
   1512      12.9654      0.00000
   1513      12.9716      0.00000
   1514      12.9801      0.00000
   1515      12.9898      0.00000
   1516      13.0089      0.00000
   1517      13.0102      0.00000
   1518      13.0222      0.00000
   1519      13.0536      0.00000
   1520      13.0539      0.00000
   1521      13.0849      0.00000
   1522      13.0863      0.00000
   1523      13.1012      0.00000
   1524      13.1171      0.00000
   1525      13.1322      0.00000
   1526      13.1340      0.00000
   1527      13.1409      0.00000
   1528      13.1629      0.00000
   1529      13.1646      0.00000
   1530      13.1953      0.00000
   1531      13.1969      0.00000
   1532      13.2082      0.00000
   1533      13.2087      0.00000
   1534      13.2141      0.00000
   1535      13.2384      0.00000
   1536      13.2620      0.00000
   1537      13.2663      0.00000
   1538      13.3000      0.00000
   1539      13.3066      0.00000
   1540      13.3266      0.00000
   1541      13.3766      0.00000
   1542      13.3802      0.00000
   1543      13.4088      0.00000
   1544      13.4142      0.00000
   1545      13.4174      0.00000
   1546      13.4196      0.00000
   1547      13.4207      0.00000
   1548      13.4308      0.00000
   1549      13.4533      0.00000
   1550      13.4603      0.00000
   1551      13.4774      0.00000
   1552      13.4931      0.00000
   1553      13.4954      0.00000
   1554      13.5147      0.00000
   1555      13.5405      0.00000
   1556      13.5619      0.00000
   1557      13.5983      0.00000
   1558      13.6046      0.00000
   1559      13.6112      0.00000
   1560      13.6242      0.00000
   1561      13.7164      0.00000
   1562      13.7609      0.00000
   1563      13.8138      0.00000
   1564      13.8308      0.00000
   1565      13.8721      0.00000
   1566      13.8903      0.00000
   1567      13.8924      0.00000
   1568      13.9172      0.00000
   1569      13.9218      0.00000
   1570      13.9348      0.00000
   1571      13.9474      0.00000
   1572      13.9625      0.00000
   1573      13.9629      0.00000
   1574      13.9801      0.00000
   1575      13.9858      0.00000
   1576      13.9896      0.00000
   1577      13.9976      0.00000
   1578      14.0041      0.00000
   1579      14.0095      0.00000
   1580      14.0201      0.00000
   1581      14.0231      0.00000
   1582      14.0329      0.00000
   1583      14.0340      0.00000
   1584      14.0424      0.00000
   1585      14.0471      0.00000
   1586      14.0589      0.00000
   1587      14.0678      0.00000
   1588      14.0688      0.00000
   1589      14.0739      0.00000
   1590      14.0750      0.00000
   1591      14.0851      0.00000
   1592      14.0862      0.00000
   1593      14.1029      0.00000
   1594      14.1422      0.00000
   1595      14.1456      0.00000
   1596      14.1593      0.00000
   1597      14.1805      0.00000
   1598      14.1818      0.00000
   1599      14.1915      0.00000
   1600      14.1948      0.00000
   1601      14.2188      0.00000
   1602      14.2223      0.00000
   1603      14.2318      0.00000
   1604      14.2413      0.00000
   1605      14.2589      0.00000
   1606      14.2636      0.00000
   1607      14.2999      0.00000
   1608      14.3005      0.00000
   1609      14.3046      0.00000
   1610      14.3219      0.00000
   1611      14.3253      0.00000
   1612      14.3463      0.00000
   1613      14.3542      0.00000
   1614      14.3586      0.00000
   1615      14.3691      0.00000
   1616      14.3900      0.00000
   1617      14.3962      0.00000
   1618      14.4057      0.00000
   1619      14.4069      0.00000
   1620      14.4268      0.00000
   1621      14.4299      0.00000
   1622      14.4347      0.00000
   1623      14.4552      0.00000
   1624      14.4589      0.00000
   1625      14.4690      0.00000
   1626      14.4745      0.00000
   1627      14.4756      0.00000
   1628      14.4884      0.00000
   1629      14.4959      0.00000
   1630      14.5149      0.00000
   1631      14.5217      0.00000
   1632      14.5231      0.00000
   1633      14.5324      0.00000
   1634      14.5443      0.00000
   1635      14.5485      0.00000
   1636      14.5517      0.00000
   1637      14.5633      0.00000
   1638      14.5635      0.00000
   1639      14.5797      0.00000
   1640      14.5933      0.00000
   1641      14.6029      0.00000
   1642      14.6064      0.00000
   1643      14.6189      0.00000
   1644      14.6308      0.00000
   1645      14.6490      0.00000
   1646      14.6509      0.00000
   1647      14.6615      0.00000
   1648      14.6642      0.00000
   1649      14.6831      0.00000
   1650      14.6849      0.00000
   1651      14.6967      0.00000
   1652      14.7153      0.00000
   1653      14.7218      0.00000
   1654      14.7329      0.00000
   1655      14.7472      0.00000
   1656      14.7679      0.00000
   1657      14.7787      0.00000
   1658      14.7797      0.00000
   1659      14.7939      0.00000
   1660      14.7995      0.00000
   1661      14.8126      0.00000
   1662      14.8257      0.00000
   1663      14.8380      0.00000
   1664      14.8406      0.00000
   1665      14.8478      0.00000
   1666      14.8563      0.00000
   1667      14.8592      0.00000
   1668      14.8750      0.00000
   1669      14.8792      0.00000
   1670      14.8811      0.00000
   1671      14.8932      0.00000
   1672      14.9007      0.00000
   1673      14.9023      0.00000
   1674      14.9124      0.00000
   1675      14.9294      0.00000
   1676      14.9517      0.00000
   1677      14.9942      0.00000
   1678      15.0087      0.00000
   1679      15.0111      0.00000
   1680      15.0347      0.00000
   1681      15.0547      0.00000
   1682      15.0823      0.00000
   1683      15.0889      0.00000
   1684      15.1096      0.00000
   1685      15.1166      0.00000
   1686      15.1414      0.00000
   1687      15.1539      0.00000
   1688      15.1649      0.00000
   1689      15.1755      0.00000
   1690      15.1888      0.00000
   1691      15.2122      0.00000
   1692      15.2504      0.00000
   1693      15.2523      0.00000
   1694      15.2637      0.00000
   1695      15.2933      0.00000
   1696      15.3072      0.00000
   1697      15.3115      0.00000
   1698      15.3240      0.00000
   1699      15.3292      0.00000
   1700      15.3407      0.00000
   1701      15.3541      0.00000
   1702      15.3578      0.00000
   1703      15.3658      0.00000
   1704      15.3816      0.00000
   1705      15.3985      0.00000
   1706      15.4553      0.00000
   1707      15.4585      0.00000
   1708      15.4728      0.00000
   1709      15.4946      0.00000
   1710      15.4996      0.00000
   1711      15.5074      0.00000
   1712      15.5189      0.00000
   1713      15.5248      0.00000
   1714      15.5361      0.00000
   1715      15.5397      0.00000
   1716      15.5490      0.00000
   1717      15.5594      0.00000
   1718      15.5616      0.00000
   1719      15.5727      0.00000
   1720      15.5801      0.00000
   1721      15.5876      0.00000
   1722      15.5992      0.00000
   1723      15.6077      0.00000
   1724      15.6128      0.00000
   1725      15.6257      0.00000
   1726      15.6299      0.00000
   1727      15.6325      0.00000
   1728      15.6436      0.00000


--------------------------------------------------------------------------------------------------------


 soft charge-density along one line, spin component           1
         0         1         2         3         4         5         6         7         8         9
 total charge-density along one line
 
 pseudopotential strength for first ion, spin component:           1
-16.875  -0.001   0.009  -0.001  -0.000 -16.526  -0.001   0.008
 -0.001 -16.865  -0.001  -0.007   0.001  -0.001 -16.516  -0.001
  0.009  -0.001 -16.865  -0.001   0.000   0.008  -0.001 -16.516
 -0.001  -0.007  -0.001 -16.865  -0.001  -0.001  -0.006  -0.001
 -0.000   0.001   0.000  -0.001 -16.874  -0.000   0.001   0.000
-16.526  -0.001   0.008  -0.001  -0.000 -16.165  -0.001   0.008
 -0.001 -16.516  -0.001  -0.006   0.001  -0.001 -16.156  -0.001
  0.008  -0.001 -16.516  -0.001   0.000   0.008  -0.001 -16.156
 -0.001  -0.006  -0.001 -16.516  -0.001  -0.001  -0.006  -0.001
 -0.000   0.001   0.000  -0.001 -16.525  -0.000   0.001   0.000
 12.009  -0.001   0.004  -0.001  -0.000  10.443  -0.001   0.003
 -0.001  12.013  -0.000  -0.003   0.001  -0.001  10.447  -0.000
  0.004  -0.000  12.013  -0.000   0.000   0.003  -0.000  10.447
 -0.001  -0.003  -0.000  12.013  -0.001  -0.001  -0.003  -0.000
 -0.000   0.001   0.000  -0.001  12.009  -0.000   0.001   0.000
  0.001   0.000  -0.001   0.000  -0.000   0.001   0.000  -0.001
  0.000   0.000   0.000   0.000   0.000   0.000   0.000   0.000
  0.001   0.003  -0.000   0.002  -0.002   0.001   0.003  -0.000
  0.002   0.002   0.005   0.002   0.000   0.002   0.002   0.004
  0.001   0.002  -0.000   0.003   0.002   0.001   0.002  -0.000
 -0.001  -0.004   0.000  -0.001   0.001  -0.001  -0.004   0.000
 -0.001  -0.001  -0.007  -0.001   0.000  -0.001  -0.001  -0.006
 -0.001  -0.001   0.000  -0.004  -0.001  -0.001  -0.001   0.000
 -0.004  -0.000  -0.002  -0.007  -0.004  -0.003  -0.000  -0.002
 -0.009  -0.003   0.000  -0.003   0.000  -0.008  -0.003   0.000
 -0.001  -0.011  -0.004  -0.005  -0.001  -0.001  -0.010  -0.004
  0.009   0.003  -0.012   0.003   0.000   0.008   0.003  -0.012
 -0.001  -0.005  -0.004  -0.011   0.001  -0.001  -0.005  -0.004
  0.000   0.005  -0.000  -0.005  -0.008   0.000   0.005  -0.000
  0.004   0.007   0.002   0.000  -0.004   0.003   0.006   0.002
  0.008   0.000   0.003   0.014   0.008   0.008   0.000   0.003
  0.019   0.007  -0.001   0.007  -0.000   0.018   0.007  -0.001
  0.001   0.024   0.009   0.010   0.002   0.001   0.023   0.008
 -0.018  -0.006   0.026  -0.006  -0.000  -0.017  -0.006   0.025
  0.001   0.010   0.009   0.024  -0.002   0.001   0.009   0.008
 -0.000  -0.011   0.000   0.011   0.018  -0.000  -0.010   0.000
 -0.008  -0.014  -0.003  -0.000   0.008  -0.008  -0.013  -0.003
 total augmentation occupancy for first ion, spin component:           1
  3.937  -0.190   0.470  -0.190  -0.000  -2.006   0.187  -0.482   0.187   0.000   0.009  -0.001   0.002  -0.001  -0.000   0.248
 -0.190   4.700   0.504   0.047   0.184   0.187  -2.781  -0.508  -0.033  -0.185  -0.001   0.013   0.002   0.000   0.001   0.002
  0.470   0.504   3.345   0.504  -0.000  -0.483  -0.508  -1.433  -0.508   0.000   0.002   0.002   0.006   0.002  -0.000  -0.204
 -0.190   0.047   0.504   4.700  -0.184   0.187  -0.033  -0.508  -2.781   0.185  -0.001   0.000   0.002   0.013  -0.001   0.002
 -0.000   0.184  -0.000  -0.184   2.633   0.000  -0.184   0.000   0.184  -0.685  -0.000   0.001  -0.000  -0.001   0.004   0.000
 -2.006   0.187  -0.483   0.187   0.000   2.073  -0.184   0.495  -0.184  -0.000  -0.008   0.001  -0.002   0.001   0.000  -0.236
  0.187  -2.781  -0.508  -0.033  -0.184  -0.184   2.860   0.512   0.020   0.185   0.001  -0.012  -0.002  -0.000  -0.001  -0.001
 -0.482  -0.508  -1.433  -0.508   0.000   0.495   0.512   1.520   0.512  -0.000  -0.002  -0.002  -0.006  -0.002   0.000   0.197
  0.187  -0.033  -0.508  -2.781   0.184  -0.184   0.020   0.512   2.860  -0.185   0.001  -0.000  -0.002  -0.012   0.001  -0.001
  0.000  -0.185   0.000   0.185  -0.685  -0.000   0.185  -0.000  -0.185   0.736   0.000  -0.001   0.000   0.001  -0.003  -0.000
  0.009  -0.001   0.002  -0.001  -0.000  -0.008   0.001  -0.002   0.001   0.000   0.000  -0.000   0.000  -0.000  -0.000   0.000
 -0.001   0.013   0.002   0.000   0.001   0.001  -0.012  -0.002  -0.000  -0.001  -0.000   0.000   0.000  -0.000   0.000  -0.000
  0.002   0.002   0.006   0.002  -0.000  -0.002  -0.002  -0.006  -0.002   0.000   0.000   0.000   0.000   0.000  -0.000  -0.000
 -0.001   0.000   0.002   0.013  -0.001   0.001  -0.000  -0.002  -0.012   0.001  -0.000  -0.000   0.000   0.000  -0.000  -0.000
 -0.000   0.001  -0.000  -0.001   0.004   0.000  -0.001   0.000   0.001  -0.003  -0.000   0.000  -0.000  -0.000   0.000   0.000
  0.248   0.002  -0.204   0.002   0.000  -0.236  -0.001   0.197  -0.001  -0.000   0.000  -0.000  -0.000  -0.000   0.000   1.418
  0.002   0.001  -0.003   0.001   0.000  -0.003  -0.001   0.004  -0.001  -0.000   0.000   0.000  -0.000   0.000   0.000   0.008
 -0.247   0.023   0.205   1.157  -0.145   0.239  -0.020  -0.199  -1.119   0.140  -0.001   0.000   0.001   0.005  -0.001  -0.026
  1.005   0.225   0.580   0.225  -0.000  -0.974  -0.218  -0.566  -0.218   0.000   0.004   0.001   0.002   0.001  -0.000  -0.026
 -0.247   1.157   0.205   0.023   0.145   0.239  -1.119  -0.199  -0.020  -0.140  -0.001   0.005   0.001   0.000   0.001  -0.026
 -0.003  -0.002   0.002   0.012  -0.001   0.003   0.001  -0.002  -0.013   0.001  -0.000  -0.000   0.000   0.000  -0.000  -0.000
  0.011   0.002   0.007   0.002  -0.000  -0.012  -0.002  -0.008  -0.002   0.000   0.000   0.000   0.000   0.000  -0.000  -0.001
 -0.003   0.012   0.002  -0.002   0.001   0.003  -0.013  -0.002   0.001  -0.001  -0.000   0.000   0.000  -0.000   0.000  -0.000
 -0.005  -0.013   0.012   0.077  -0.010   0.005   0.013  -0.013  -0.082   0.011  -0.000  -0.000   0.000   0.000  -0.000   0.011
 -0.022  -0.019  -0.002  -0.019   0.000   0.025   0.019   0.000   0.019  -0.000  -0.000  -0.000  -0.000  -0.000   0.000  -0.083
  0.005   0.049   0.037   0.092  -0.004  -0.006  -0.052  -0.039  -0.097   0.004   0.000   0.000   0.000   0.000  -0.000  -0.014
 -0.078   0.034   0.030   0.034   0.000   0.086  -0.035  -0.035  -0.035   0.000  -0.000   0.000   0.000   0.000   0.000  -0.029
  0.005   0.092   0.037   0.049   0.004  -0.006  -0.097  -0.039  -0.052  -0.004   0.000   0.000   0.000   0.000   0.000  -0.014
 -0.000  -0.019   0.000   0.019  -0.013   0.000   0.020  -0.000  -0.020   0.014  -0.000  -0.000   0.000   0.000  -0.000  -0.000
  0.005  -0.077  -0.012   0.013  -0.010  -0.005   0.082   0.013  -0.013   0.011   0.000  -0.000  -0.000   0.000  -0.000  -0.011
 -0.002  -0.004   0.003   0.019  -0.003   0.001   0.004  -0.003  -0.022   0.003  -0.000  -0.000   0.000   0.000  -0.000   0.003
 -0.008  -0.005  -0.000  -0.005   0.000   0.007   0.005  -0.000   0.005   0.000  -0.000  -0.000  -0.000  -0.000   0.000  -0.024
  0.001   0.011   0.009   0.024  -0.001  -0.002  -0.014  -0.011  -0.026   0.001   0.000   0.000   0.000   0.000  -0.000  -0.004
 -0.019   0.010   0.006   0.010   0.000   0.023  -0.010  -0.010  -0.010   0.000  -0.000   0.000   0.000   0.000   0.000  -0.008
  0.001   0.024   0.009   0.011   0.001  -0.002  -0.026  -0.011  -0.014  -0.001   0.000   0.000   0.000   0.000   0.000  -0.004
 -0.000  -0.004   0.000   0.004  -0.005   0.000   0.005  -0.000  -0.005   0.004  -0.000  -0.000   0.000   0.000  -0.000  -0.000
  0.002  -0.019  -0.003   0.004  -0.003  -0.001   0.022   0.003  -0.004   0.003   0.000  -0.000  -0.000   0.000  -0.000  -0.003

