LAMMPS (24 Aug 2020)
Total wall time: 0:00:02
