20
Lattice="25.0 0.0 0.0 0.0 25.0 0.0 0.0 0.0 50.0" Properties=species:S:1:pos:R:3 pbc="F F F" Time = 0.0 Energy= 298.35200000000003
C  9.714000  9.080000  26.222000
C  9.907000  7.776000  26.633000
C  11.217000  7.005000  26.612000
C  12.285000  7.788000  26.103000
C  12.184000  9.215000  25.744000
C  10.834000  9.772000  25.702000
O  10.769000  11.056000  25.264000
C  9.449000  11.891000  25.564000
H  8.576000  11.639000  24.863000
H  9.313000  11.606000  26.642000
H  9.607000  12.953000  25.391000
H  8.555000  9.391000  26.026000
H  11.044000  5.805000  26.758000
H  13.320000  7.273000  26.084000
H  13.224000  9.725000  25.553000
O  8.753000  7.231000  27.029000
C  8.754000  5.929000  27.561000
H  8.880000  5.014000  26.950000
H  9.524000  5.711000  28.413000
H  7.819000  5.601000  28.011000
20
Lattice="25.0 0.0 0.0 0.0 25.0 0.0 0.0 0.0 50.0" Properties=species:S:1:pos:R:3 pbc="F F F" Time = 0.0 Energy= 309.282
C  8.248000  8.890000  26.635000
C  8.376000  7.477000  26.938000
C  9.529000  6.764000  26.851000
C  10.783000  7.300000  26.602000
C  10.716000  8.653000  26.187000
C  9.517000  9.494000  26.123000
O  9.838000  10.808000  26.114000
C  8.647000  11.663000  25.886000
H  7.878000  11.089000  25.433000
H  8.314000  11.890000  27.022000
H  8.945000  12.510000  25.198000
H  7.348000  9.600000  26.678000
H  9.505000  5.709000  27.170000
H  11.590000  6.657000  26.709000
H  11.709000  9.060000  25.801000
O  7.042000  6.850000  27.286000
C  6.927000  5.478000  27.419000
H  5.879000  5.271000  27.851000
H  7.029000  5.037000  26.380000
H  7.708000  5.226000  28.218000
20
Lattice="25.0 0.0 0.0 0.0 25.0 0.0 0.0 0.0 50.0" Properties=species:S:1:pos:R:3 pbc="F F F" Time = 0.0 Energy= 277.385
C  8.655000  9.137000  25.832000
C  8.316000  7.766000  26.288000
C  9.278000  6.880000  26.621000
C  10.663000  7.297000  26.445000
C  11.022000  8.503000  25.868000
C  9.943000  9.383000  25.549000
O  10.291000  10.531000  25.053000
C  9.217000  11.621000  24.997000
H  8.544000  11.576000  24.270000
H  8.666000  11.694000  25.921000
H  9.610000  12.618000  24.609000
H  7.845000  10.024000  25.652000
H  9.210000  5.850000  26.881000
H  11.267000  6.573000  26.888000
H  12.152000  8.729000  25.805000
O  6.946000  7.567000  26.462000
C  6.481000  6.658000  27.450000
H  5.329000  6.685000  27.055000
H  6.847000  5.634000  27.442000
H  6.544000  6.985000  28.606000
20
Lattice="25.0 0.0 0.0 0.0 25.0 0.0 0.0 0.0 50.0" Properties=species:S:1:pos:R:3 pbc="F F F" Time = 0.0 Energy= 288.168
C  8.849000  9.738000  25.562000
C  8.305000  8.465000  26.153000
C  9.177000  7.494000  26.538000
C  10.569000  7.949000  26.686000
C  11.157000  9.042000  25.974000
C  10.198000  9.923000  25.429000
O  10.715000  10.928000  24.674000
C  9.764000  11.513000  23.667000
H  9.163000  10.680000  23.255000
H  8.987000  12.071000  24.276000
H  10.402000  12.345000  23.136000
H  8.030000  10.315000  25.240000
H  8.772000  6.626000  27.130000
H  11.405000  7.501000  27.186000
H  12.162000  9.346000  26.007000
O  6.843000  8.298000  26.163000
C  6.324000  7.149000  26.841000
H  5.304000  7.450000  27.091000
H  6.349000  6.379000  26.005000
H  6.754000  6.811000  27.717000
20
Lattice="25.0 0.0 0.0 0.0 25.0 0.0 0.0 0.0 50.0" Properties=species:S:1:pos:R:3 pbc="F F F" Time = 0.0 Energy= 298.939
C  8.171000  10.301000  25.182000
C  7.779000  9.052000  25.790000
C  8.737000  8.257000  26.409000
C  10.209000  8.583000  26.281000
C  10.618000  9.770000  25.760000
C  9.603000  10.670000  25.193000
O  10.119000  11.765000  24.513000
C  9.464000  12.421000  23.423000
H  8.829000  11.637000  22.865000
H  8.956000  13.404000  23.622000
H  10.511000  12.515000  22.774000
H  7.428000  10.898000  24.593000
H  8.474000  7.221000  26.673000
H  11.025000  7.876000  26.824000
H  11.588000  10.238000  25.890000
O  6.381000  8.877000  25.851000
C  5.622000  8.018000  26.716000
H  4.694000  8.035000  26.277000
H  6.134000  6.968000  26.705000
H  5.813000  8.402000  27.809000
20
Lattice="25.0 0.0 0.0 0.0 25.0 0.0 0.0 0.0 50.0" Properties=species:S:1:pos:R:3 pbc="F F F" Time = 0.0 Energy= 294.49799999999993
C  8.231000  10.500000  25.229000
C  7.633000  9.283000  25.859000
C  8.558000  8.297000  26.101000
C  9.962000  8.535000  26.171000
C  10.589000  9.716000  25.599000
C  9.601000  10.665000  25.068000
O  10.267000  11.805000  24.624000
C  9.199000  12.635000  23.967000
H  8.999000  12.041000  23.129000
H  8.421000  13.016000  24.640000
H  9.889000  13.550000  23.793000
H  7.374000  11.133000  24.843000
H  8.086000  7.485000  26.606000
H  10.563000  7.649000  26.642000
H  11.611000  9.866000  25.523000
O  6.289000  9.143000  25.693000
C  5.841000  8.063000  26.526000
H  4.817000  8.234000  26.805000
H  5.943000  7.037000  26.114000
H  6.436000  8.079000  27.529000
20
Lattice="25.0 0.0 0.0 0.0 25.0 0.0 0.0 0.0 50.0" Properties=species:S:1:pos:R:3 pbc="F F F" Time = 0.0 Energy= 297.18500000000006
C  7.799000  9.668000  25.438000
C  7.167000  8.738000  26.212000
C  7.939000  7.805000  26.898000
C  9.308000  7.912000  27.046000
C  10.077000  9.118000  26.494000
C  9.180000  9.853000  25.667000
O  10.004000  10.893000  24.992000
C  9.329000  11.555000  23.810000
H  9.313000  11.066000  22.828000
H  8.283000  11.845000  23.934000
H  10.011000  12.472000  23.731000
H  7.277000  10.451000  24.736000
H  7.280000  7.192000  27.465000
H  9.720000  6.972000  27.622000
H  11.138000  9.205000  26.509000
O  5.871000  8.531000  25.958000
C  5.213000  7.498000  26.693000
H  4.103000  7.519000  26.514000
H  5.652000  6.506000  26.448000
H  5.248000  7.987000  27.656000
20
Lattice="25.0 0.0 0.0 0.0 25.0 0.0 0.0 0.0 50.0" Properties=species:S:1:pos:R:3 pbc="F F F" Time = 0.0 Energy= 278.486
C  7.865000  9.543000  25.478000
C  7.264000  8.690000  26.342000
C  8.047000  7.775000  27.233000
C  9.396000  8.086000  27.209000
C  9.983000  9.144000  26.494000
C  9.226000  9.865000  25.555000
O  9.989000  10.644000  24.607000
C  9.110000  11.615000  23.938000
H  8.259000  11.070000  23.360000
H  8.623000  12.396000  24.670000
H  9.879000  11.985000  23.246000
H  7.357000  10.007000  24.528000
H  7.570000  7.009000  27.890000
H  10.099000  7.441000  27.748000
H  11.110000  9.135000  26.430000
O  5.931000  8.445000  25.969000
C  5.057000  8.048000  27.006000
H  4.030000  8.682000  26.866000
H  4.821000  7.038000  26.887000
H  5.153000  8.468000  28.030000
20
Lattice="25.0 0.0 0.0 0.0 25.0 0.0 0.0 0.0 50.0" Properties=species:S:1:pos:R:3 pbc="F F F" Time = 0.0 Energy= 285.82
C  7.839000  9.744000  25.418000
C  7.187000  8.786000  26.262000
C  7.893000  7.924000  27.197000
C  9.285000  8.232000  27.203000
C  10.006000  8.995000  26.262000
C  9.198000  9.774000  25.320000
O  9.972000  10.701000  24.581000
C  9.062000  11.759000  24.002000
H  8.248000  11.505000  23.308000
H  8.752000  12.399000  24.847000
H  9.856000  12.491000  23.322000
H  7.286000  10.436000  24.887000
H  7.491000  7.261000  27.935000
H  10.137000  7.924000  27.947000
H  11.049000  8.879000  26.256000
O  5.867000  8.631000  26.101000
C  4.979000  8.015000  27.106000
H  3.959000  8.044000  26.695000
H  5.414000  6.923000  27.389000
H  5.443000  8.529000  27.953000
20
Lattice="25.0 0.0 0.0 0.0 25.0 0.0 0.0 0.0 50.0" Properties=species:S:1:pos:R:3 pbc="F F F" Time = 0.0 Energy= 286.268
C  7.984000  10.133000  25.469000
C  7.309000  9.274000  26.193000
C  7.896000  8.037000  26.519000
C  9.256000  7.853000  26.196000
C  10.156000  8.915000  25.698000
C  9.322000  10.039000  25.172000
O  10.112000  10.959000  24.487000
C  9.313000  11.937000  23.659000
H  8.396000  11.469000  23.430000
H  9.145000  12.743000  24.344000
H  9.912000  12.124000  22.606000
H  7.568000  10.972000  25.031000
H  7.274000  7.265000  26.940000
H  9.633000  6.730000  26.428000
H  11.104000  8.721000  25.297000
O  6.029000  9.770000  26.505000
C  5.047000  8.694000  26.859000
H  4.002000  9.234000  27.205000
H  4.682000  8.002000  26.046000
H  5.228000  8.186000  27.930000
20
Lattice="25.0 0.0 0.0 0.0 25.0 0.0 0.0 0.0 50.0" Properties=species:S:1:pos:R:3 pbc="F F F" Time = 0.0 Energy= 286.538
C  8.039000  10.458000  25.222000
C  7.293000  9.599000  26.016000
C  7.900000  8.522000  26.635000
C  9.174000  8.077000  26.199000
C  9.981000  8.955000  25.386000
C  9.425000  10.171000  25.018000
O  10.120000  11.140000  24.301000
C  9.630000  12.232000  23.704000
H  9.106000  11.926000  22.791000
H  8.980000  12.819000  24.421000
H  10.661000  12.928000  23.608000
H  7.765000  11.510000  24.935000
H  7.287000  7.769000  27.275000
H  9.829000  7.057000  26.351000
H  11.027000  8.792000  25.234000
O  5.957000  9.989000  26.288000
C  5.163000  8.958000  26.804000
H  4.203000  9.450000  26.737000
H  5.202000  8.067000  26.316000
H  5.349000  8.795000  27.933000
20
Lattice="25.0 0.0 0.0 0.0 25.0 0.0 0.0 0.0 50.0" Properties=species:S:1:pos:R:3 pbc="F F F" Time = 0.0 Energy= 297.67
C  8.080000  10.518000  25.097000
C  7.332000  9.547000  25.756000
C  7.874000  8.414000  26.399000
C  9.263000  8.204000  26.302000
C  10.002000  9.068000  25.405000
C  9.407000  10.202000  24.809000
O  10.251000  11.128000  24.050000
C  9.864000  12.508000  23.916000
H  8.807000  12.265000  23.614000
H  9.911000  12.998000  24.948000
H  10.438000  12.924000  23.168000
H  7.595000  11.457000  24.997000
H  7.304000  7.570000  26.793000
H  9.619000  7.377000  26.986000
H  11.100000  8.878000  25.378000
O  6.066000  9.946000  26.148000
C  5.157000  8.928000  26.513000
H  4.302000  9.564000  26.565000
H  5.112000  8.189000  25.696000
H  5.351000  8.617000  27.626000
20
Lattice="25.0 0.0 0.0 0.0 25.0 0.0 0.0 0.0 50.0" Properties=species:S:1:pos:R:3 pbc="F F F" Time = 0.0 Energy= 308.863
C  8.026000  10.635000  25.276000
C  7.518000  9.527000  25.904000
C  8.257000  8.631000  26.564000
C  9.725000  8.870000  26.888000
C  10.261000  9.985000  26.168000
C  9.406000  10.791000  25.320000
O  9.982000  12.018000  24.926000
C  9.618000  12.703000  23.651000
H  9.169000  12.217000  22.703000
H  8.809000  13.367000  24.080000
H  10.512000  13.220000  23.331000
H  7.399000  11.251000  24.809000
H  7.933000  7.986000  27.381000
H  10.238000  8.522000  27.845000
H  11.255000  10.249000  26.228000
O  6.095000  9.402000  25.924000
C  5.458000  8.403000  26.838000
H  4.453000  8.500000  26.564000
H  5.925000  7.493000  26.585000
H  5.763000  8.743000  27.924000
20
Lattice="25.0 0.0 0.0 0.0 25.0 0.0 0.0 0.0 50.0" Properties=species:S:1:pos:R:3 pbc="F F F" Time = 0.0 Energy= 311.714
C  8.047000  10.742000  25.673000
C  7.668000  9.444000  26.155000
C  8.500000  8.533000  26.875000
C  9.824000  9.090000  27.033000
C  10.335000  10.216000  26.311000
C  9.571000  10.933000  25.437000
O  10.133000  12.002000  24.718000
C  9.073000  12.677000  23.837000
H  8.704000  11.863000  23.206000
H  8.299000  12.974000  24.511000
H  9.487000  13.600000  23.403000
H  7.333000  11.424000  25.323000
H  8.140000  7.644000  27.237000
H  10.471000  8.688000  27.829000
H  11.328000  10.453000  26.270000
O  6.414000  9.224000  25.690000
C  5.544000  8.379000  26.521000
H  4.548000  8.647000  26.181000
H  5.846000  7.326000  26.397000
H  5.506000  8.906000  27.596000
20
Lattice="25.0 0.0 0.0 0.0 25.0 0.0 0.0 0.0 50.0" Properties=species:S:1:pos:R:3 pbc="F F F" Time = 0.0 Energy= 280.457
C  8.559000  10.400000  25.337000
C  8.035000  9.241000  25.917000
C  8.794000  8.283000  26.669000
C  10.100000  8.840000  27.014000
C  10.654000  9.952000  26.355000
C  9.884000  10.723000  25.435000
O  10.509000  11.952000  25.069000
C  9.592000  12.715000  24.278000
H  9.339000  12.089000  23.345000
H  8.754000  12.896000  24.905000
H  10.229000  13.640000  24.032000
H  7.752000  11.113000  24.878000
H  8.434000  7.391000  27.200000
H  10.606000  8.239000  27.812000
H  11.645000  10.452000  26.712000
O  6.587000  9.112000  25.640000
C  5.996000  8.244000  26.628000
H  4.768000  8.433000  26.583000
H  6.264000  7.181000  26.471000
H  6.206000  8.615000  27.729000
20
Lattice="25.0 0.0 0.0 0.0 25.0 0.0 0.0 0.0 50.0" Properties=species:S:1:pos:R:3 pbc="F F F" Time = 0.0 Energy= 297.476
C  8.526000  10.400000  25.332000
C  8.078000  9.184000  25.924000
C  8.745000  8.300000  26.687000
C  10.144000  8.799000  27.037000
C  10.624000  9.950000  26.338000
C  9.914000  10.751000  25.430000
O  10.511000  11.933000  25.076000
C  9.644000  12.724000  24.213000
H  9.254000  12.093000  23.309000
H  8.814000  12.946000  24.998000
H  10.171000  13.629000  24.139000
H  7.816000  11.077000  24.816000
H  8.451000  7.331000  26.981000
H  10.584000  8.210000  27.751000
H  11.612000  10.327000  26.660000
O  6.612000  9.089000  25.635000
C  5.963000  8.246000  26.699000
H  4.847000  8.444000  26.622000
H  6.297000  7.183000  26.451000
H  6.222000  8.649000  27.713000
20
Lattice="25.0 0.0 0.0 0.0 25.0 0.0 0.0 0.0 50.0" Properties=species:S:1:pos:R:3 pbc="F F F" Time = 0.0 Energy= 299.43
C  8.783000  9.971000  25.183000
C  8.132000  8.793000  25.852000
C  9.109000  7.838000  26.345000
C  10.456000  7.960000  26.206000
C  11.010000  8.857000  25.292000
C  10.141000  10.050000  24.982000
O  10.819000  11.094000  24.296000
C  10.115000  12.311000  23.830000
H  9.524000  11.970000  22.951000
H  9.554000  12.545000  24.763000
H  10.880000  12.926000  23.389000
H  8.248000  10.831000  24.984000
H  8.719000  6.933000  26.955000
H  11.287000  7.329000  26.638000
H  12.098000  9.107000  25.077000
O  6.749000  8.811000  25.976000
C  6.392000  7.782000  26.881000
H  5.414000  8.080000  27.094000
H  6.478000  6.668000  26.516000
H  6.866000  7.792000  27.872000
20
Lattice="25.0 0.0 0.0 0.0 25.0 0.0 0.0 0.0 50.0" Properties=species:S:1:pos:R:3 pbc="F F F" Time = 0.0 Energy= 291.858
C  8.252000  10.026000  25.315000
C  8.183000  8.843000  26.084000
C  9.218000  8.089000  26.610000
C  10.535000  8.560000  26.408000
C  10.740000  9.775000  25.658000
C  9.609000  10.503000  25.130000
O  10.002000  11.620000  24.444000
C  9.068000  12.534000  23.896000
H  8.517000  12.079000  23.025000
H  8.600000  13.121000  24.685000
H  9.429000  13.373000  23.277000
H  7.391000  10.717000  25.023000
H  8.914000  7.256000  27.173000
H  11.489000  8.062000  26.831000
H  11.793000  10.147000  25.753000
O  6.860000  8.423000  26.302000
C  6.510000  7.329000  27.011000
H  5.465000  7.220000  26.839000
H  7.103000  6.447000  26.751000
H  6.668000  7.464000  28.030000
20
Lattice="25.0 0.0 0.0 0.0 25.0 0.0 0.0 0.0 50.0" Properties=species:S:1:pos:R:3 pbc="F F F" Time = 0.0 Energy= 290.186
C  8.494000  10.066000  25.281000
C  8.122000  8.782000  25.887000
C  9.097000  7.984000  26.376000
C  10.477000  8.184000  26.260000
C  10.886000  9.327000  25.491000
C  9.873000  10.199000  25.156000
O  10.385000  11.378000  24.616000
C  9.493000  12.252000  23.894000
H  8.919000  11.795000  22.907000
H  8.560000  12.820000  24.515000
H  10.251000  13.067000  23.539000
H  7.658000  10.774000  25.088000
H  8.884000  7.064000  26.851000
H  11.222000  7.660000  26.840000
H  12.031000  9.433000  25.492000
O  6.716000  8.523000  26.004000
C  6.504000  7.363000  26.777000
H  5.331000  7.171000  26.893000
H  6.799000  6.318000  26.359000
H  6.816000  7.526000  27.832000
20
Lattice="25.0 0.0 0.0 0.0 25.0 0.0 0.0 0.0 50.0" Properties=species:S:1:pos:R:3 pbc="F F F" Time = 0.0 Energy= 287.895
C  8.524000  9.851000  25.293000
C  8.089000  8.744000  25.957000
C  9.154000  7.808000  26.370000
C  10.570000  8.217000  26.382000
C  10.975000  9.245000  25.632000
C  9.883000  10.051000  25.018000
O  10.385000  11.252000  24.443000
C  9.408000  12.131000  23.678000
H  8.868000  11.491000  23.013000
H  8.688000  12.520000  24.210000
H  10.084000  12.872000  23.289000
H  7.766000  10.548000  25.045000
H  8.911000  6.989000  27.039000
H  11.228000  7.629000  26.991000
H  11.991000  9.683000  25.637000
O  6.737000  8.614000  26.057000
C  6.084000  7.549000  26.784000
H  5.048000  7.630000  26.239000
H  6.446000  6.538000  26.423000
H  6.122000  7.875000  27.775000
20
Lattice="25.0 0.0 0.0 0.0 25.0 0.0 0.0 0.0 50.0" Properties=species:S:1:pos:R:3 pbc="F F F" Time = 0.0 Energy= 286.268
C  8.527000  9.867000  25.102000
C  7.938000  8.713000  25.789000
C  8.868000  7.916000  26.497000
C  10.303000  8.083000  26.328000
C  10.791000  9.127000  25.461000
C  9.881000  9.999000  24.929000
O  10.388000  11.162000  24.363000
C  9.474000  11.966000  23.533000
H  8.800000  11.157000  22.957000
H  8.734000  12.602000  24.167000
H  10.182000  12.640000  22.905000
H  7.871000  10.705000  24.784000
H  8.532000  7.001000  27.028000
H  11.109000  7.426000  26.797000
H  11.819000  9.466000  25.429000
O  6.577000  8.650000  25.882000
C  6.119000  7.575000  26.651000
H  5.012000  7.889000  26.584000
H  6.347000  6.553000  26.168000
H  6.561000  7.600000  27.582000
20
Lattice="25.0 0.0 0.0 0.0 25.0 0.0 0.0 0.0 50.0" Properties=species:S:1:pos:R:3 pbc="F F F" Time = 0.0 Energy= 298.06
C  7.920000  10.186000  25.121000
C  7.449000  9.063000  25.899000
C  8.274000  8.024000  26.340000
C  9.662000  7.977000  25.935000
C  10.142000  9.175000  25.321000
C  9.346000  10.235000  24.889000
O  9.971000  11.138000  24.053000
C  9.193000  12.221000  23.544000
H  8.246000  11.900000  23.035000
H  8.752000  12.841000  24.314000
H  9.974000  12.814000  23.029000
H  7.124000  11.055000  24.746000
H  7.826000  7.094000  26.664000
H  10.383000  7.168000  26.136000
H  11.191000  9.011000  25.077000
O  6.062000  8.953000  25.812000
C  5.437000  8.056000  26.783000
H  4.410000  8.375000  26.620000
H  5.530000  6.968000  26.458000
H  5.673000  8.242000  27.782000
20
Lattice="25.0 0.0 0.0 0.0 25.0 0.0 0.0 0.0 50.0" Properties=species:S:1:pos:R:3 pbc="F F F" Time = 0.0 Energy= 288.533
C  8.362000  10.575000  25.429000
C  7.575000  9.520000  26.184000
C  8.216000  8.637000  27.050000
C  9.632000  8.949000  27.303000
C  10.385000  9.742000  26.468000
C  9.728000  10.547000  25.590000
O  10.715000  11.570000  25.030000
C  10.127000  12.603000  24.205000
H  9.605000  12.189000  23.401000
H  9.325000  13.255000  24.596000
H  10.880000  13.330000  23.830000
H  7.871000  11.430000  24.870000
H  7.703000  7.835000  27.583000
H  10.297000  8.334000  27.976000
H  11.468000  9.769000  26.557000
O  6.234000  9.550000  25.843000
C  5.545000  8.390000  26.426000
H  4.530000  8.548000  26.130000
H  5.939000  7.439000  26.121000
H  5.624000  8.624000  27.530000
20
Lattice="25.0 0.0 0.0 0.0 25.0 0.0 0.0 0.0 50.0" Properties=species:S:1:pos:R:3 pbc="F F F" Time = 0.0 Energy= 300.219
C  8.275000  10.747000  25.323000
C  7.650000  9.529000  25.855000
C  8.412000  8.649000  26.642000
C  9.830000  8.768000  26.909000
C  10.481000  9.848000  26.282000
C  9.664000  10.756000  25.516000
O  10.367000  11.865000  25.017000
C  9.641000  13.085000  24.488000
H  9.025000  12.781000  23.648000
H  9.217000  13.511000  25.434000
H  10.559000  13.635000  24.140000
H  7.675000  11.355000  24.689000
H  7.829000  7.859000  27.213000
H  10.351000  8.175000  27.655000
H  11.560000  9.981000  26.505000
O  6.365000  9.444000  25.738000
C  5.600000  8.516000  26.462000
H  4.533000  8.760000  26.207000
H  5.665000  7.505000  26.132000
H  5.740000  8.706000  27.601000
20
Lattice="25.0 0.0 0.0 0.0 25.0 0.0 0.0 0.0 50.0" Properties=species:S:1:pos:R:3 pbc="F F F" Time = 0.0 Energy= 290.186
C  7.920000  10.379000  25.326000
C  7.579000  9.177000  26.035000
C  8.546000  8.214000  26.391000
C  9.881000  8.401000  25.980000
C  10.285000  9.649000  25.445000
C  9.313000  10.557000  25.099000
O  9.714000  11.715000  24.428000
C  8.754000  12.812000  24.234000
H  7.736000  12.559000  23.661000
H  8.533000  13.421000  25.154000
H  9.297000  13.502000  23.582000
H  7.217000  11.023000  24.897000
H  7.946000  7.509000  26.972000
H  10.616000  7.484000  25.992000
H  11.305000  10.034000  25.215000
O  6.242000  9.077000  26.336000
C  5.881000  7.870000  26.938000
H  4.800000  8.189000  26.824000
H  5.951000  6.841000  26.396000
H  6.166000  7.833000  27.989000
20
Lattice="25.0 0.0 0.0 0.0 25.0 0.0 0.0 0.0 50.0" Properties=species:S:1:pos:R:3 pbc="F F F" Time = 0.0 Energy= 299.43
C  8.330000  9.826000  25.257000
C  7.830000  8.829000  26.188000
C  8.667000  8.003000  26.957000
C  10.108000  8.053000  26.728000
C  10.604000  9.203000  25.974000
C  9.687000  9.996000  25.191000
O  10.236000  11.014000  24.404000
C  9.410000  11.773000  23.588000
H  8.578000  11.224000  23.120000
H  8.852000  12.572000  24.145000
H  10.212000  12.398000  23.103000
H  7.549000  10.429000  24.852000
H  8.401000  7.029000  27.617000
H  10.818000  7.360000  27.193000
H  11.694000  9.384000  25.931000
O  6.465000  8.731000  26.155000
C  5.773000  7.508000  26.516000
H  4.778000  7.819000  26.150000
H  6.196000  6.672000  25.967000
H  5.929000  7.201000  27.635000
20
Lattice="25.0 0.0 0.0 0.0 25.0 0.0 0.0 0.0 50.0" Properties=species:S:1:pos:R:3 pbc="F F F" Time = 0.0 Energy= 292.795
C  8.309000  9.896000  25.177000
C  7.595000  8.739000  25.691000
C  8.232000  7.634000  26.307000
C  9.672000  7.671000  26.491000
C  10.368000  8.903000  26.086000
C  9.600000  9.966000  25.496000
O  10.420000  11.074000  25.223000
C  9.776000  12.111000  24.633000
H  9.332000  12.160000  23.541000
H  8.878000  12.478000  25.154000
H  10.387000  13.068000  24.522000
H  7.742000  10.727000  24.663000
H  7.369000  6.757000  26.408000
H  10.086000  6.809000  27.028000
H  11.392000  9.079000  26.327000
O  6.277000  8.707000  25.438000
C  5.463000  7.722000  26.096000
H  4.443000  8.153000  26.015000
H  5.508000  6.700000  25.511000
H  5.852000  7.560000  27.119000
20
Lattice="25.0 0.0 0.0 0.0 25.0 0.0 0.0 0.0 50.0" Properties=species:S:1:pos:R:3 pbc="F F F" Time = 0.0 Energy= 285.551
C  8.194000  10.138000  25.722000
C  7.540000  8.980000  26.213000
C  8.253000  7.843000  26.666000
C  9.629000  7.933000  26.660000
C  10.336000  9.068000  26.074000
C  9.630000  10.171000  25.607000
O  10.409000  11.166000  24.944000
C  9.762000  12.400000  24.433000
H  9.171000  12.251000  23.476000
H  9.064000  12.759000  25.206000
H  10.610000  13.127000  24.378000
H  7.602000  10.804000  25.091000
H  7.523000  7.020000  27.204000
H  10.318000  7.169000  27.045000
H  11.440000  9.141000  25.918000
O  6.136000  9.115000  26.200000
C  5.480000  8.131000  26.928000
H  4.360000  8.422000  26.931000
H  5.459000  7.095000  26.407000
H  5.965000  7.904000  27.900000
20
Lattice="25.0 0.0 0.0 0.0 25.0 0.0 0.0 0.0 50.0" Properties=species:S:1:pos:R:3 pbc="F F F" Time = 0.0 Energy= 289.541
C  8.007000  10.270000  25.389000
C  7.473000  9.314000  26.235000
C  8.209000  8.484000  27.057000
C  9.640000  8.428000  26.852000
C  10.243000  9.357000  25.948000
C  9.372000  10.273000  25.219000
O  10.070000  11.042000  24.369000
C  9.374000  11.860000  23.262000
H  8.986000  11.110000  22.504000
H  8.441000  12.384000  23.792000
H  10.144000  12.582000  22.944000
H  7.398000  11.010000  24.800000
H  7.620000  7.717000  27.654000
H  10.232000  7.557000  27.288000
H  11.384000  9.515000  25.728000
O  6.096000  9.512000  26.463000
C  5.326000  8.459000  27.193000
H  4.262000  8.597000  27.109000
H  5.618000  7.444000  26.815000
H  5.694000  8.532000  28.229000
20
Lattice="25.0 0.0 0.0 0.0 25.0 0.0 0.0 0.0 50.0" Properties=species:S:1:pos:R:3 pbc="F F F" Time = 0.0 Energy= 287.08
C  8.404000  10.416000  25.198000
C  7.852000  9.178000  25.591000
C  8.686000  8.205000  26.166000
C  10.058000  8.419000  26.368000
C  10.618000  9.675000  26.016000
C  9.819000  10.624000  25.447000
O  10.491000  11.827000  25.195000
C  9.616000  13.091000  24.821000
H  9.291000  13.002000  23.816000
H  8.666000  13.168000  25.350000
H  10.380000  13.943000  25.080000
H  7.726000  11.142000  24.721000
H  8.278000  7.275000  26.637000
H  10.487000  7.451000  26.608000
H  11.627000  10.081000  25.995000
O  6.493000  9.081000  25.422000
C  5.700000  8.239000  26.348000
H  4.876000  7.939000  25.602000
H  6.181000  7.331000  26.728000
H  5.481000  8.920000  27.201000
20
Lattice="25.0 0.0 0.0 0.0 25.0 0.0 0.0 0.0 50.0" Properties=species:S:1:pos:R:3 pbc="F F F" Time = 0.0 Energy= 286.268
C  8.382000  10.526000  25.362000
C  7.883000  9.246000  25.622000
C  8.669000  8.210000  26.132000
C  10.065000  8.421000  26.225000
C  10.625000  9.610000  25.821000
C  9.798000  10.691000  25.375000
O  10.518000  11.955000  25.200000
C  9.716000  13.125000  24.834000
H  9.296000  13.123000  23.781000
H  8.727000  13.339000  25.320000
H  10.359000  13.896000  25.069000
H  7.748000  11.236000  24.770000
H  8.396000  7.169000  26.336000
H  10.759000  7.616000  26.643000
H  11.683000  9.941000  26.131000
O  6.515000  9.191000  25.351000
C  5.640000  8.225000  26.137000
H  4.963000  7.836000  25.407000
H  6.199000  7.313000  26.559000
H  5.174000  8.863000  26.933000
20
Lattice="25.0 0.0 0.0 0.0 25.0 0.0 0.0 0.0 50.0" Properties=species:S:1:pos:R:3 pbc="F F F" Time = 0.0 Energy= 275.874
C  8.467000  10.593000  25.226000
C  7.853000  9.346000  25.446000
C  8.572000  8.238000  25.994000
C  9.964000  8.425000  26.148000
C  10.591000  9.617000  26.007000
C  9.852000  10.698000  25.517000
O  10.570000  11.898000  25.358000
C  9.884000  13.002000  24.810000
H  9.325000  12.765000  23.919000
H  8.949000  13.421000  25.409000
H  10.577000  13.901000  24.722000
H  7.956000  11.550000  24.950000
H  8.017000  7.264000  26.068000
H  10.433000  7.463000  26.438000
H  11.616000  9.947000  26.210000
O  6.539000  9.260000  25.189000
C  5.624000  8.650000  26.157000
H  4.698000  9.251000  26.174000
H  5.244000  7.668000  25.797000
H  6.184000  8.442000  27.114000
20
Lattice="25.0 0.0 0.0 0.0 25.0 0.0 0.0 0.0 50.0" Properties=species:S:1:pos:R:3 pbc="F F F" Time = 0.0 Energy= 289.817
C  8.212000  10.603000  25.033000
C  7.388000  9.468000  25.513000
C  8.059000  8.441000  26.356000
C  9.384000  8.596000  26.717000
C  10.185000  9.645000  26.246000
C  9.578000  10.704000  25.430000
O  10.396000  11.908000  25.190000
C  9.769000  12.764000  24.256000
H  9.813000  12.266000  23.284000
H  8.845000  13.036000  24.515000
H  10.476000  13.696000  24.312000
H  7.563000  11.272000  24.474000
H  7.532000  7.533000  26.655000
H  9.888000  7.813000  27.250000
H  11.312000  9.572000  26.476000
O  6.112000  9.423000  25.044000
C  5.207000  8.598000  25.903000
H  5.724000  8.205000  26.846000
H  4.301000  9.222000  26.049000
H  4.963000  7.686000  25.340000
20
Lattice="25.0 0.0 0.0 0.0 25.0 0.0 0.0 0.0 50.0" Properties=species:S:1:pos:R:3 pbc="F F F" Time = 0.0 Energy= 286.08899999999994
C  7.950000  10.666000  25.232000
C  7.288000  9.631000  25.782000
C  7.897000  8.648000  26.546000
C  9.347000  8.489000  26.438000
C  10.066000  9.467000  25.681000
C  9.375000  10.576000  25.159000
O  10.219000  11.518000  24.617000
C  9.712000  12.762000  24.152000
H  8.917000  12.663000  23.465000
H  9.198000  13.446000  24.908000
H  10.510000  13.373000  23.803000
H  7.418000  11.429000  24.728000
H  7.340000  7.880000  27.092000
H  9.844000  7.701000  27.015000
H  11.160000  9.489000  25.590000
O  5.903000  9.686000  25.644000
C  4.882000  8.763000  26.238000
H  4.931000  8.682000  27.347000
H  3.871000  9.186000  26.049000
H  4.961000  7.754000  25.692000
20
Lattice="25.0 0.0 0.0 0.0 25.0 0.0 0.0 0.0 50.0" Properties=species:S:1:pos:R:3 pbc="F F F" Time = 0.0 Energy= 291.113
C  7.771000  10.714000  25.040000
C  7.100000  9.606000  25.700000
C  7.861000  8.545000  26.299000
C  9.217000  8.564000  26.284000
C  9.985000  9.667000  25.701000
C  9.236000  10.680000  25.034000
O  10.047000  11.695000  24.436000
C  9.358000  12.687000  23.790000
H  8.785000  12.346000  22.881000
H  8.607000  13.085000  24.387000
H  10.124000  13.591000  23.539000
H  7.207000  11.491000  24.421000
H  7.469000  7.624000  26.743000
H  9.827000  7.877000  26.909000
H  11.112000  9.469000  25.922000
O  5.684000  9.768000  25.806000
C  5.113000  8.655000  26.436000
H  5.296000  8.816000  27.536000
H  4.053000  8.939000  26.412000
H  5.314000  7.702000  25.973000
20
Lattice="25.0 0.0 0.0 0.0 25.0 0.0 0.0 0.0 50.0" Properties=species:S:1:pos:R:3 pbc="F F F" Time = 0.0 Energy= 280.543
C  7.729000  10.625000  25.073000
C  7.087000  9.479000  25.652000
C  7.872000  8.501000  26.292000
C  9.263000  8.548000  26.165000
C  9.910000  9.551000  25.476000
C  9.146000  10.556000  24.937000
O  9.888000  11.688000  24.331000
C  9.061000  12.520000  23.404000
H  8.403000  11.874000  22.846000
H  8.587000  13.259000  24.208000
H  9.782000  12.993000  22.717000
H  7.038000  11.413000  24.652000
H  7.633000  7.561000  26.903000
H  9.902000  7.791000  26.578000
H  10.957000  9.225000  25.331000
O  5.731000  9.550000  25.582000
C  4.957000  8.687000  26.521000
H  5.186000  8.817000  27.571000
H  3.912000  8.741000  26.179000
H  5.166000  7.561000  26.427000
20
Lattice="25.0 0.0 0.0 0.0 25.0 0.0 0.0 0.0 50.0" Properties=species:S:1:pos:R:3 pbc="F F F" Time = 0.0 Energy= 296.412
C  7.625000  10.328000  24.787000
C  7.021000  9.334000  25.646000
C  7.774000  8.429000  26.318000
C  9.257000  8.619000  26.397000
C  9.900000  9.731000  25.619000
C  9.049000  10.538000  24.823000
O  9.793000  11.431000  24.042000
C  8.938000  12.282000  23.242000
H  8.567000  11.599000  22.460000
H  8.238000  12.834000  23.879000
H  9.740000  13.066000  22.823000
H  7.072000  11.157000  24.376000
H  7.246000  7.662000  26.893000