20
Lattice="25.0 0.0 0.0 0.0 25.0 0.0 0.0 0.0 50.0" Properties=species:S:1:pos:R:3 pbc="F F F" Time = 0.0 Energy= 276.292
H  7.610000  8.549000  6.561000
C  6.662000  8.314000  7.005000
C  6.434000  7.785000  8.245000
H  7.243000  7.476000  8.875000
C  5.088000  7.353000  8.644000
H  4.879000  6.817000  9.643000
C  3.990000  7.639000  7.837000
O  2.614000  7.417000  8.095000
C  4.272000  8.336000  6.625000
C  5.553000  8.644000  6.198000
H  5.754000  9.029000  5.203000
O  3.149000  8.680000  5.949000
C  2.246000  6.947000  9.376000
H  2.753000  7.584000  10.096000
H  1.137000  7.024000  9.547000
H  2.556000  5.854000  9.524000
C  3.281000  9.349000  4.714000
H  2.250000  9.760000  4.470000
H  3.956000  10.228000  4.696000
H  3.510000  8.621000  3.915000
20
Lattice="25.0 0.0 0.0 0.0 25.0 0.0 0.0 0.0 50.0" Properties=species:S:1:pos:R:3 pbc="F F F" Time = 0.0 Energy= 288.077
H  7.446000  8.853000  7.242000
C  6.457000  8.474000  7.481000
C  6.263000  7.534000  8.514000
H  7.147000  7.103000  8.940000
C  5.033000  6.931000  8.770000
H  4.947000  6.201000  9.499000
C  3.943000  7.492000  8.023000
O  2.642000  7.019000  8.241000
C  4.072000  8.410000  6.966000
C  5.373000  8.795000  6.684000
H  5.525000  9.505000  5.848000
O  2.875000  8.733000  6.292000
C  2.455000  6.551000  9.599000
H  2.688000  7.361000  10.236000
H  1.372000  6.299000  9.564000
H  3.051000  5.692000  9.885000
C  2.889000  9.756000  5.210000
H  1.874000  9.588000  4.795000
H  2.872000  10.777000  5.658000
H  3.666000  9.574000  4.508000
20
Lattice="25.0 0.0 0.0 0.0 25.0 0.0 0.0 0.0 50.0" Properties=species:S:1:pos:R:3 pbc="F F F" Time = 0.0 Energy= 288.077
H  7.383000  8.533000  6.787000
C  6.411000  8.314000  7.217000
C  6.279000  7.444000  8.269000
H  7.164000  7.110000  8.901000
C  4.952000  7.160000  8.779000
H  4.817000  6.469000  9.566000
C  3.902000  7.639000  8.013000
O  2.579000  7.474000  8.321000
C  4.025000  8.631000  6.993000
C  5.315000  8.978000  6.592000
H  5.446000  9.615000  5.717000
O  2.846000  8.997000  6.439000
C  2.148000  6.327000  9.173000
H  2.713000  6.161000  10.077000
H  1.050000  6.558000  9.401000
H  2.159000  5.435000  8.503000
C  2.878000  10.205000  5.666000
H  1.808000  10.547000  5.548000
H  3.373000  11.042000  6.237000
H  3.324000  10.082000  4.667000
20
Lattice="25.0 0.0 0.0 0.0 25.0 0.0 0.0 0.0 50.0" Properties=species:S:1:pos:R:3 pbc="F F F" Time = 0.0 Energy= 285.01599999999996
H  7.136000  8.519000  7.447000
C  6.085000  8.302000  7.697000
C  5.830000  7.337000  8.621000
H  6.574000  6.955000  9.289000
C  4.489000  6.929000  8.833000
H  4.405000  6.040000  9.520000
C  3.419000  7.550000  8.221000
O  2.127000  7.186000  8.446000
C  3.758000  8.568000  7.230000
C  5.096000  8.888000  6.896000
H  5.353000  9.622000  6.147000
O  2.700000  9.114000  6.549000
C  1.826000  6.399000  9.586000
H  1.573000  7.164000  10.391000
H  0.888000  5.844000  9.299000
H  2.637000  5.733000  9.929000
C  2.934000  9.996000  5.490000
H  1.975000  10.541000  5.269000
H  3.587000  10.823000  5.864000
H  3.376000  9.499000  4.623000
20
Lattice="25.0 0.0 0.0 0.0 25.0 0.0 0.0 0.0 50.0" Properties=species:S:1:pos:R:3 pbc="F F F" Time = 0.0 Energy= 276.88
H  7.360000  8.788000  7.207000
C  6.333000  8.468000  7.393000
C  6.089000  7.593000  8.441000
H  6.864000  7.204000  9.125000
C  4.786000  7.138000  8.683000
H  4.596000  6.337000  9.381000
C  3.760000  7.512000  7.779000
O  2.474000  7.146000  7.817000
C  4.073000  8.258000  6.583000
C  5.334000  8.746000  6.449000
H  5.574000  9.217000  5.506000
O  2.997000  8.441000  5.760000
C  2.078000  6.353000  8.917000
H  2.348000  6.912000  9.876000
H  0.994000  6.331000  8.951000
H  2.468000  5.330000  8.973000
C  3.222000  9.304000  4.591000
H  2.875000  8.812000  3.694000
H  2.660000  10.208000  4.755000
H  4.251000  9.538000  4.386000
20
Lattice="25.0 0.0 0.0 0.0 25.0 0.0 0.0 0.0 50.0" Properties=species:S:1:pos:R:3 pbc="F F F" Time = 0.0 Energy= 280.716
H  7.345000  8.964000  6.938000
C  6.353000  8.538000  7.092000
C  5.973000  7.903000  8.285000
H  6.713000  7.624000  9.062000
C  4.671000  7.371000  8.449000
H  4.488000  6.786000  9.353000
C  3.635000  7.557000  7.575000
O  2.393000  7.062000  7.563000
C  4.023000  8.297000  6.397000
C  5.331000  8.733000  6.158000
H  5.542000  9.373000  5.326000
O  2.943000  8.417000  5.506000
C  1.946000  6.442000  8.793000
H  1.459000  7.111000  9.551000
H  1.245000  5.712000  8.456000
H  2.801000  5.966000  9.223000
C  3.005000  9.320000  4.382000
H  2.701000  8.733000  3.492000
H  2.381000  10.235000  4.548000
H  4.017000  9.658000  4.110000
20
Lattice="25.0 0.0 0.0 0.0 25.0 0.0 0.0 0.0 50.0" Properties=species:S:1:pos:R:3 pbc="F F F" Time = 0.0 Energy= 286.358
H  7.345000  8.996000  6.866000
C  6.350000  8.562000  7.070000
C  5.964000  7.924000  8.303000
H  6.743000  7.616000  8.978000
C  4.687000  7.384000  8.486000
H  4.528000  6.879000  9.511000
C  3.656000  7.562000  7.539000
O  2.359000  7.071000  7.558000
C  3.995000  8.313000  6.375000
C  5.306000  8.720000  6.126000
H  5.547000  9.373000  5.282000
O  2.938000  8.459000  5.480000
C  1.907000  6.418000  8.808000
H  1.543000  7.150000  9.523000
H  1.163000  5.648000  8.473000
H  2.802000  5.928000  9.229000
C  3.007000  9.355000  4.371000
H  2.644000  8.760000  3.528000
H  2.431000  10.211000  4.577000
H  4.022000  9.679000  4.134000
20
Lattice="25.0 0.0 0.0 0.0 25.0 0.0 0.0 0.0 50.0" Properties=species:S:1:pos:R:3 pbc="F F F" Time = 0.0 Energy= 275.791
H  7.415000  8.825000  6.770000
C  6.506000  8.446000  7.184000
C  6.408000  7.747000  8.362000
H  7.328000  7.489000  8.965000
C  5.180000  7.297000  8.901000
H  5.060000  6.669000  9.813000
C  4.016000  7.647000  8.169000
O  2.694000  7.296000  8.557000
C  4.089000  8.355000  6.991000
C  5.317000  8.693000  6.479000
H  5.398000  9.151000  5.489000
O  2.890000  8.615000  6.414000
C  2.633000  6.198000  9.503000
H  3.117000  6.401000  10.477000
H  1.562000  5.958000  9.691000
H  3.331000  5.428000  9.143000
C  2.750000  9.224000  5.082000
H  1.742000  9.608000  5.100000
H  3.434000  10.109000  4.925000
H  3.067000  8.509000  4.271000
20
Lattice="25.0 0.0 0.0 0.0 25.0 0.0 0.0 0.0 50.0" Properties=species:S:1:pos:R:3 pbc="F F F" Time = 0.0 Energy= 287.351
H  7.150000  8.668000  6.298000
C  6.242000  8.316000  6.718000
C  6.159000  7.667000  7.959000
H  7.090000  7.393000  8.477000
C  4.919000  7.316000  8.557000
H  4.930000  6.805000  9.504000
C  3.740000  7.436000  7.748000
O  2.523000  7.034000  8.126000
C  3.828000  8.129000  6.491000
C  5.068000  8.549000  5.974000
H  5.096000  9.121000  5.046000
O  2.643000  8.317000  5.871000
C  2.460000  6.268000  9.434000
H  2.687000  6.758000  10.362000
H  1.464000  5.809000  9.524000
H  3.031000  5.376000  9.238000
C  2.679000  8.904000  4.583000
H  1.705000  9.063000  4.192000
H  3.205000  9.877000  4.577000
H  3.094000  8.232000  3.823000
20
Lattice="25.0 0.0 0.0 0.0 25.0 0.0 0.0 0.0 50.0" Properties=species:S:1:pos:R:3 pbc="F F F" Time = 0.0 Energy= 293.078
H  7.073000  9.562000  6.622000
C  6.203000  8.972000  7.046000
C  6.438000  8.101000  8.086000
H  7.455000  7.835000  8.222000
C  5.349000  7.442000  8.663000
H  5.488000  6.606000  9.320000
C  4.034000  7.502000  8.070000
O  2.925000  6.906000  8.512000
C  3.810000  8.520000  7.044000
C  4.950000  9.180000  6.501000
H  4.813000  9.884000  5.705000
O  2.533000  8.612000  6.730000
C  3.026000  5.976000  9.661000
H  3.812000  6.259000  10.408000
H  1.976000  5.855000  10.092000
H  3.291000  4.985000  9.203000
C  2.265000  8.824000  5.349000
H  1.322000  8.283000  5.237000
H  2.086000  9.890000  5.092000
H  3.048000  8.388000  4.685000
20
Lattice="25.0 0.0 0.0 0.0 25.0 0.0 0.0 0.0 50.0" Properties=species:S:1:pos:R:3 pbc="F F F" Time = 0.0 Energy= 272.657
H  7.473000  8.561000  6.656000
C  6.455000  8.323000  7.008000
C  6.368000  7.773000  8.274000
H  7.267000  7.704000  8.866000
C  5.082000  7.512000  8.832000
H  5.102000  7.240000  9.884000
C  3.961000  7.769000  8.101000
O  2.691000  7.438000  8.492000
C  4.035000  8.191000  6.764000
C  5.246000  8.549000  6.241000
H  5.360000  8.846000  5.225000
O  2.766000  8.370000  6.169000
C  2.525000  6.591000  9.640000
H  2.712000  6.971000  10.658000
H  1.474000  6.266000  9.548000
H  3.209000  5.745000  9.617000
C  2.703000  9.052000  4.901000
H  1.697000  8.989000  4.527000
H  3.011000  10.109000  5.069000
H  3.448000  8.600000  4.222000
20
Lattice="25.0 0.0 0.0 0.0 25.0 0.0 0.0 0.0 50.0" Properties=species:S:1:pos:R:3 pbc="F F F" Time = 0.0 Energy= 283.95
H  7.284000  8.823000  6.219000
C  6.343000  8.556000  6.664000
C  6.286000  7.694000  7.783000
H  7.182000  7.151000  8.161000
C  5.126000  7.238000  8.397000
H  5.216000  6.572000  9.232000
C  3.926000  7.656000  7.856000
O  2.720000  7.246000  8.375000
C  3.908000  8.511000  6.715000
C  5.082000  8.915000  6.077000
H  5.044000  9.597000  5.184000
O  2.605000  8.755000  6.201000
C  2.702000  5.944000  9.029000
H  1.676000  5.728000  9.285000
H  3.016000  5.222000  8.263000
H  3.305000  5.954000  9.876000
C  2.490000  9.050000  4.787000
H  1.405000  9.318000  4.679000
H  3.043000  9.963000  4.491000
H  2.767000  8.235000  4.084000
20
Lattice="25.0 0.0 0.0 0.0 25.0 0.0 0.0 0.0 50.0" Properties=species:S:1:pos:R:3 pbc="F F F" Time = 0.0 Energy= 289.265
H  7.175000  8.682000  6.705000
C  6.276000  8.290000  7.176000
C  6.358000  7.347000  8.230000
H  7.312000  6.831000  8.528000
C  5.212000  6.843000  8.936000
H  5.429000  6.191000  9.722000
C  3.958000  7.294000  8.569000
O  2.855000  7.099000  9.220000
C  3.839000  8.166000  7.429000
C  4.994000  8.635000  6.727000
H  4.942000  9.383000  5.942000
O  2.538000  8.525000  7.132000
C  2.736000  5.814000  9.900000
H  1.663000  5.416000  9.800000
H  3.348000  5.103000  9.319000
H  3.138000  5.911000  10.956000
C  2.140000  8.826000  5.717000
H  1.054000  8.969000  5.737000
H  2.627000  9.730000  5.293000
H  2.377000  7.973000  5.044000
20
Lattice="25.0 0.0 0.0 0.0 25.0 0.0 0.0 0.0 50.0" Properties=species:S:1:pos:R:3 pbc="F F F" Time = 0.0 Energy= 279.94
H  7.006000  9.127000  7.145000
C  6.082000  8.699000  7.530000
C  6.113000  7.822000  8.685000
H  7.070000  7.605000  9.142000
C  4.899000  7.273000  9.135000
H  4.964000  6.627000  10.056000
C  3.730000  7.501000  8.474000
O  2.556000  7.060000  8.898000
C  3.691000  8.335000  7.362000
C  4.884000  8.958000  6.900000
H  4.842000  9.648000  6.033000
O  2.459000  8.698000  6.834000
C  2.490000  6.322000  10.151000
H  1.493000  5.781000  10.099000
H  3.296000  5.548000  10.402000
H  2.551000  7.063000  10.964000
C  1.966000  8.174000  5.573000
H  0.970000  7.748000  5.772000
H  1.813000  9.070000  4.943000
H  2.643000  7.413000  5.151000
20
Lattice="25.0 0.0 0.0 0.0 25.0 0.0 0.0 0.0 50.0" Properties=species:S:1:pos:R:3 pbc="F F F" Time = 0.0 Energy= 287.532
H  6.968000  9.499000  7.012000
C  6.032000  8.974000  7.399000
C  6.060000  8.028000  8.425000
H  7.020000  7.741000  8.879000
C  4.848000  7.459000  8.858000
H  4.836000  6.916000  9.758000
C  3.651000  7.861000  8.330000
O  2.439000  7.334000  8.758000
C  3.608000  8.788000  7.244000
C  4.805000  9.396000  6.779000
H  4.899000  10.129000  5.935000
O  2.381000  9.062000  6.651000
C  2.517000  6.061000  9.509000
H  1.449000  5.708000  9.654000
H  3.082000  5.283000  8.938000
H  2.984000  6.181000  10.551000
C  2.175000  9.761000  5.374000
H  3.118000  9.905000  4.886000
H  1.513000  9.128000  4.787000
H  1.725000  10.737000  5.568000
20
Lattice="25.0 0.0 0.0 0.0 25.0 0.0 0.0 0.0 50.0" Properties=species:S:1:pos:R:3 pbc="F F F" Time = 0.0 Energy= 277.638
H  7.545000  9.316000  6.433000
C  6.589000  8.880000  6.822000
C  6.688000  8.196000  8.024000
H  7.644000  8.193000  8.484000
C  5.492000  7.637000  8.528000
H  5.508000  6.978000  9.354000
C  4.298000  7.743000  7.773000
O  3.053000  7.245000  8.067000
C  4.220000  8.541000  6.620000
C  5.417000  9.037000  6.150000
H  5.446000  9.674000  5.287000
O  3.029000  8.614000  5.977000
C  2.837000  6.598000  9.344000
H  3.488000  6.861000  10.124000
H  1.775000  6.767000  9.588000
H  2.904000  5.544000  9.225000
C  3.146000  8.994000  4.552000
H  3.642000  9.935000  4.340000
H  3.656000  8.146000  4.078000
H  2.076000  9.097000  4.211000
20
Lattice="25.0 0.0 0.0 0.0 25.0 0.0 0.0 0.0 50.0" Properties=species:S:1:pos:R:3 pbc="F F F" Time = 0.0 Energy= 287.895
H  7.670000  9.329000  6.363000
C  6.669000  8.946000  6.724000
C  6.606000  8.239000  7.975000
H  7.526000  7.988000  8.567000
C  5.442000  7.651000  8.471000
H  5.500000  7.110000  9.465000
C  4.236000  7.803000  7.803000
O  3.045000  7.245000  8.142000
C  4.300000  8.515000  6.525000
C  5.487000  9.099000  5.994000
H  5.552000  9.550000  5.011000
O  3.075000  8.736000  5.956000
C  2.763000  6.524000  9.348000
H  3.474000  6.837000  10.215000
H  1.765000  6.850000  9.651000
H  2.830000  5.392000  9.248000
C  3.126000  8.925000  4.511000
H  3.332000  10.001000  4.365000
H  3.949000  8.338000  4.019000
H  2.172000  8.665000  4.113000
20
Lattice="25.0 0.0 0.0 0.0 25.0 0.0 0.0 0.0 50.0" Properties=species:S:1:pos:R:3 pbc="F F F" Time = 0.0 Energy= 281.496
H  7.157000  8.948000  7.027000
C  6.171000  8.629000  7.394000
C  6.024000  7.818000  8.554000
H  6.838000  7.462000  9.171000
C  4.763000  7.318000  8.863000
H  4.742000  6.736000  9.828000
C  3.659000  7.631000  8.086000
O  2.393000  7.048000  8.280000
C  3.800000  8.595000  7.038000
C  5.041000  9.119000  6.728000
H  5.113000  9.878000  5.907000
O  2.599000  8.932000  6.413000
C  2.355000  6.131000  9.406000
H  2.566000  6.690000  10.296000
H  1.378000  5.709000  9.497000
H  3.136000  5.337000  9.301000
C  2.557000  9.254000  4.967000
H  2.299000  10.309000  4.889000
H  3.501000  9.075000  4.473000
H  1.812000  8.558000  4.506000
20
Lattice="25.0 0.0 0.0 0.0 25.0 0.0 0.0 0.0 50.0" Properties=species:S:1:pos:R:3 pbc="F F F" Time = 0.0 Energy= 286.268
H  6.853000  8.799000  6.563000
C  5.947000  8.452000  7.030000
C  5.981000  7.663000  8.199000
H  6.901000  7.434000  8.678000
C  4.725000  7.279000  8.751000
H  4.687000  6.567000  9.599000
C  3.508000  7.606000  8.090000
O  2.187000  7.173000  8.401000
C  3.515000  8.515000  6.996000
C  4.729000  8.925000  6.456000
H  4.692000  9.738000  5.756000
O  2.332000  8.918000  6.532000
C  2.140000  5.952000  9.144000
H  2.645000  6.115000  10.171000
H  1.078000  5.751000  9.344000
H  2.593000  5.136000  8.584000
C  2.340000  9.581000  5.226000
H  2.946000  10.500000  5.211000
H  2.691000  8.884000  4.443000
H  1.240000  9.920000  5.116000
20
Lattice="25.0 0.0 0.0 0.0 25.0 0.0 0.0 0.0 50.0" Properties=species:S:1:pos:R:3 pbc="F F F" Time = 0.0 Energy= 288.168
H  6.976000  9.301000  7.189000
C  6.047000  8.670000  7.296000
C  5.993000  7.765000  8.315000
H  6.907000  7.376000  8.846000
C  4.727000  7.214000  8.639000
H  4.729000  6.461000  9.445000
C  3.527000  7.613000  7.977000
O  2.273000  7.219000  8.384000
C  3.658000  8.583000  6.927000
C  4.936000  9.077000  6.524000
H  5.037000  9.833000  5.759000
O  2.508000  8.954000  6.318000
C  2.200000  6.251000  9.490000
H  2.527000  6.704000  10.483000
H  1.156000  6.054000  9.498000
H  2.753000  5.365000  9.286000
C  2.503000  9.234000  4.908000
H  2.544000  10.324000  4.798000
H  3.318000  8.731000  4.407000
H  1.580000  8.812000  4.543000
20
Lattice="25.0 0.0 0.0 0.0 25.0 0.0 0.0 0.0 50.0" Properties=species:S:1:pos:R:3 pbc="F F F" Time = 0.0 Energy= 277.892
H  7.165000  9.683000  7.084000
C  6.160000  9.226000  7.398000
C  6.156000  8.329000  8.502000
H  7.030000  8.377000  9.175000
C  5.015000  7.659000  8.945000
H  5.136000  7.004000  9.806000
C  3.835000  7.846000  8.231000
O  2.645000  7.192000  8.479000
C  3.817000  8.678000  7.084000
C  4.983000  9.286000  6.624000
H  5.008000  9.790000  5.673000
O  2.623000  8.718000  6.394000
C  2.547000  6.228000  9.539000
H  2.687000  6.717000  10.514000
H  1.548000  5.879000  9.343000
H  3.283000  5.334000  9.455000
C  2.756000  9.108000  5.006000
H  3.057000  10.185000  4.900000
H  3.519000  8.464000  4.517000
H  1.749000  9.002000  4.580000
20
Lattice="25.0 0.0 0.0 0.0 25.0 0.0 0.0 0.0 50.0" Properties=species:S:1:pos:R:3 pbc="F F F" Time = 0.0 Energy= 286.358
H  6.527000  9.894000  6.081000
C  5.762000  9.422000  6.613000
C  6.064000  8.683000  7.814000
H  7.116000  8.503000  8.082000
C  5.046000  8.155000  8.566000
H  5.283000  7.741000  9.567000
C  3.704000  8.215000  8.138000
O  2.646000  7.609000  8.734000
C  3.419000  8.860000  6.899000
C  4.418000  9.572000  6.192000
H  4.147000  10.085000  5.257000
O  2.097000  8.759000  6.448000
C  2.929000  7.056000  10.057000
H  3.160000  7.768000  10.799000
H  1.951000  6.626000  10.299000
H  3.683000  6.248000  10.041000
C  1.909000  8.705000  5.007000
H  1.999000  9.721000  4.559000
H  2.716000  8.055000  4.609000
H  0.980000  8.273000  4.780000
20
Lattice="25.0 0.0 0.0 0.0 25.0 0.0 0.0 0.0 50.0" Properties=species:S:1:pos:R:3 pbc="F F F" Time = 0.0 Energy= 280.802
H  7.276000  9.406000  7.879000
C  6.213000  9.072000  7.954000
C  5.947000  8.364000  9.104000
H  6.679000  8.300000  9.970000
C  4.659000  7.805000  9.320000
H  4.500000  7.234000  10.328000
C  3.796000  7.685000  8.283000
O  2.644000  6.967000  8.291000
C  4.053000  8.341000  7.013000
C  5.241000  9.044000  6.869000
H  5.515000  9.366000  5.859000
O  3.062000  8.223000  6.101000
C  2.110000  6.313000  9.451000
H  1.755000  7.118000  10.091000
H  1.291000  5.763000  9.057000
H  2.855000  5.630000  10.016000
C  3.202000  8.714000  4.729000
H  3.573000  9.814000  4.616000
H  3.945000  8.086000  4.182000
H  2.233000  8.495000  4.353000
20
Lattice="25.0 0.0 0.0 0.0 25.0 0.0 0.0 0.0 50.0" Properties=species:S:1:pos:R:3 pbc="F F F" Time = 0.0 Energy= 283.245
H  6.768000  9.906000  7.852000
C  5.901000  9.250000  7.889000
C  5.728000  8.499000  9.030000
H  6.434000  8.619000  9.803000
C  4.582000  7.698000  9.188000
H  4.538000  7.076000  10.012000
C  3.568000  7.700000  8.198000
O  2.469000  6.918000  8.259000
C  3.767000  8.459000  6.932000
C  4.980000  9.153000  6.785000
H  5.127000  9.851000  5.930000
O  2.707000  8.480000  6.067000
C  2.280000  6.117000  9.426000
H  2.228000  6.853000  10.272000
H  1.278000  5.577000  9.407000
H  3.070000  5.438000  9.609000
C  3.163000  8.943000  4.751000
H  3.400000  9.984000  4.712000
H  3.957000  8.254000  4.391000
H  2.242000  8.905000  4.081000
20
Lattice="25.0 0.0 0.0 0.0 25.0 0.0 0.0 0.0 50.0" Properties=species:S:1:pos:R:3 pbc="F F F" Time = 0.0 Energy= 294.783
H  7.180000  9.127000  6.051000
C  6.388000  8.770000  6.732000
C  6.608000  8.095000  7.968000
H  7.610000  8.075000  8.327000
C  5.493000  7.450000  8.547000
H  5.661000  6.852000  9.517000
C  4.186000  7.531000  7.913000
O  2.979000  7.068000  8.499000
C  4.026000  8.216000  6.707000
C  5.142000  8.800000  6.049000
H  4.898000  9.290000  5.092000
O  2.704000  8.370000  6.251000
C  2.909000  6.915000  9.946000
H  3.115000  7.902000  10.480000
H  1.921000  6.611000  10.197000
H  3.598000  6.162000  10.261000
C  2.475000  8.449000  4.823000
H  3.052000  9.205000  4.337000
H  2.722000  7.460000  4.418000
H  1.428000  8.707000  4.741000
20
Lattice="25.0 0.0 0.0 0.0 25.0 0.0 0.0 0.0 50.0" Properties=species:S:1:pos:R:3 pbc="F F F" Time = 0.0 Energy= 289.174
H  6.522000  10.487000  7.272000
C  5.840000  9.655000  7.366000
C  6.233000  8.604000  8.170000
H  7.282000  8.740000  8.530000
C  5.228000  7.647000  8.480000
H  5.428000  6.867000  9.164000
C  3.959000  7.787000  7.865000
O  2.978000  6.844000  8.046000
C  3.655000  8.757000  6.925000
C  4.584000  9.794000  6.742000
H  4.326000  10.619000  6.144000
O  2.359000  8.738000  6.413000
C  3.049000  6.065000  9.304000
H  3.298000  6.861000  10.058000
H  1.977000  5.728000  9.370000
H  3.761000  5.246000  9.346000
C  2.165000  8.947000  4.978000
H  2.681000  9.761000  4.569000
H  2.396000  8.090000  4.359000
H  1.086000  9.070000  4.836000
20
Lattice="25.0 0.0 0.0 0.0 25.0 0.0 0.0 0.0 50.0" Properties=species:S:1:pos:R:3 pbc="F F F" Time = 0.0 Energy= 288.6240000000001
H  6.510000  10.476000  7.278000
C  5.841000  9.655000  7.363000
C  6.226000  8.597000  8.164000
H  7.296000  8.745000  8.537000
C  5.226000  7.648000  8.479000
H  5.425000  6.866000  9.152000
C  3.956000  7.785000  7.867000
O  2.977000  6.840000  8.041000
C  3.655000  8.751000  6.932000
C  4.588000  9.788000  6.740000
H  4.331000  10.619000  6.143000
O  2.357000  8.735000  6.413000
C  3.050000  6.066000  9.305000
H  3.302000  6.850000  10.075000
H  1.966000  5.724000  9.366000
H  3.745000  5.257000  9.347000
C  2.158000  8.939000  4.979000
H  2.686000  9.775000  4.586000
H  2.393000  8.095000  4.360000
H  1.085000  9.072000  4.844000
20
Lattice="25.0 0.0 0.0 0.0 25.0 0.0 0.0 0.0 50.0" Properties=species:S:1:pos:R:3 pbc="F F F" Time = 0.0 Energy= 280.716
H  6.778000  9.458000  6.380000
C  5.940000  8.993000  6.886000
C  6.166000  8.166000  7.983000
H  7.138000  7.912000  8.486000
C  5.049000  7.607000  8.660000
H  5.188000  7.039000  9.541000
C  3.787000  7.758000  8.110000
O  2.637000  7.155000  8.583000
C  3.565000  8.546000  6.942000
C  4.645000  9.148000  6.302000
H  4.566000  9.675000  5.387000
O  2.209000  8.665000  6.522000
C  2.993000  5.973000  9.468000
H  3.199000  6.274000  10.488000
H  2.013000  5.412000  9.476000
H  3.804000  5.326000  9.163000
C  1.993000  8.729000  5.054000
H  2.144000  9.694000  4.633000
H  2.745000  8.020000  4.628000
H  0.944000  8.392000  4.894000
20
Lattice="25.0 0.0 0.0 0.0 25.0 0.0 0.0 0.0 50.0" Properties=species:S:1:pos:R:3 pbc="F F F" Time = 0.0 Energy= 284.7490000000001
H  6.971000  9.816000  6.311000
C  6.208000  9.291000  6.824000
C  6.405000  8.503000  7.970000
H  7.452000  8.420000  8.478000
C  5.336000  7.844000  8.564000
H  5.501000  7.259000  9.462000
C  4.044000  7.938000  8.007000
O  2.935000  7.200000  8.455000
C  3.848000  8.673000  6.817000
C  4.925000  9.361000  6.226000
H  4.825000  9.936000  5.258000
O  2.548000  8.675000  6.372000
C  2.715000  6.995000  9.895000
H  2.773000  8.014000  10.346000
H  1.779000  6.463000  10.175000
H  3.559000  6.429000  10.310000
C  2.325000  8.884000  4.896000
H  2.588000  9.827000  4.512000
H  2.806000  8.058000  4.350000
H  1.281000  8.724000  4.813000
20
Lattice="25.0 0.0 0.0 0.0 25.0 0.0 0.0 0.0 50.0" Properties=species:S:1:pos:R:3 pbc="F F F" Time = 0.0 Energy= 276.376
H  6.736000  9.321000  6.785000
C  5.888000  8.847000  7.359000
C  6.146000  8.126000  8.524000
H  7.190000  7.864000  8.812000
C  5.076000  7.493000  9.148000
H  5.360000  6.780000  9.911000
C  3.753000  7.658000  8.745000
O  2.705000  7.102000  9.466000
C  3.490000  8.440000  7.606000
C  4.589000  8.945000  6.916000
H  4.414000  9.537000  5.996000
O  2.190000  8.353000  7.035000
C  2.741000  6.549000  10.769000
H  2.920000  7.387000  11.521000
H  1.793000  6.095000  10.962000
H  3.528000  5.787000  10.945000
C  2.077000  8.604000  5.658000
H  2.271000  9.618000  5.280000
H  2.855000  8.038000  5.092000
H  1.081000  8.296000  5.298000
20
Lattice="25.0 0.0 0.0 0.0 25.0 0.0 0.0 0.0 50.0" Properties=species:S:1:pos:R:3 pbc="F F F" Time = 0.0 Energy= 280.975
H  7.045000  9.253000  6.444000
C  6.175000  8.843000  6.976000
C  6.189000  8.238000  8.216000
H  7.180000  8.097000  8.667000
C  5.098000  7.696000  8.818000
H  5.200000  7.210000  9.873000
C  3.867000  7.741000  8.222000
O  2.706000  7.356000  8.798000
C  3.744000  8.421000  6.922000
C  4.924000  8.944000  6.314000
H  4.976000  9.377000  5.341000
O  2.471000  8.329000  6.334000
C  2.755000  6.153000  9.681000
H  3.338000  6.424000  10.606000
H  1.646000  6.020000  9.918000
H  3.162000  5.284000  9.210000
C  2.372000  8.835000  4.902000
H  2.667000  9.846000  4.970000
H  3.042000  8.264000  4.210000
H  1.309000  8.577000  4.613000
20
Lattice="25.0 0.0 0.0 0.0 25.0 0.0 0.0 0.0 50.0" Properties=species:S:1:pos:R:3 pbc="F F F" Time = 0.0 Energy= 282.28
H  6.924000  9.777000  6.442000
C  6.185000  9.105000  6.869000
C  6.350000  8.359000  8.043000
H  7.332000  8.167000  8.508000
C  5.280000  7.725000  8.728000
H  5.531000  7.311000  9.736000
C  4.002000  7.765000  8.146000
O  2.750000  7.165000  8.497000
C  3.802000  8.423000  6.863000
C  4.930000  9.067000  6.254000
H  4.790000  9.529000  5.256000
O  2.583000  8.285000  6.247000
C  2.778000  6.346000  9.625000
H  3.228000  6.792000  10.519000
H  1.717000  6.116000  9.834000
H  3.335000  5.420000  9.383000
C  2.500000  8.851000  4.967000
H  2.422000  9.914000  4.972000
H  3.290000  8.560000  4.221000
H  1.472000  8.603000  4.562000
20
Lattice="25.0 0.0 0.0 0.0 25.0 0.0 0.0 0.0 50.0" Properties=species:S:1:pos:R:3 pbc="F F F" Time = 0.0 Energy= 279.425
H  7.091000  9.633000  6.519000
C  6.181000  9.204000  6.940000
C  6.352000  8.459000  8.104000
H  7.340000  8.509000  8.545000
C  5.277000  7.692000  8.591000
H  5.301000  6.897000  9.344000
C  4.058000  7.795000  7.975000
O  2.914000  7.108000  8.445000
C  3.870000  8.481000  6.744000
C  4.995000  9.207000  6.237000
H  4.923000  9.733000  5.305000
O  2.651000  8.370000  6.235000
C  2.874000  6.377000  9.703000
H  3.154000  7.027000  10.555000
H  1.825000  6.089000  9.837000
H  3.481000  5.448000  9.784000
C  2.390000  8.873000  4.896000
H  2.487000  10.036000  4.902000
H  3.145000  8.521000  4.166000
H  1.443000  8.469000  4.574000
20
Lattice="25.0 0.0 0.0 0.0 25.0 0.0 0.0 0.0 50.0" Properties=species:S:1:pos:R:3 pbc="F F F" Time = 0.0 Energy= 273.557
H  7.078000  9.561000  6.520000
C  6.138000  9.226000  6.941000
C  6.166000  8.510000  8.167000
H  7.123000  8.483000  8.676000
C  5.013000  7.901000  8.652000
H  5.101000  7.240000  9.530000
C  3.811000  8.149000  8.092000
O  2.626000  7.611000  8.544000
C  3.726000  8.756000  6.790000
C  4.852000  9.330000  6.263000
H  4.727000  9.781000  5.328000
O  2.544000  8.766000  6.126000
C  2.786000  6.747000  9.613000
H  3.237000  7.271000  10.456000
H  1.805000  6.420000  9.919000
H  3.395000  5.842000  9.339000
C  2.568000  8.916000  4.668000
H  3.042000  9.853000  4.318000
H  3.158000  8.089000  4.196000
H  1.542000  8.779000  4.406000
20
Lattice="25.0 0.0 0.0 0.0 25.0 0.0 0.0 0.0 50.0" Properties=species:S:1:pos:R:3 pbc="F F F" Time = 0.0 Energy= 285.551
H  7.147000  9.577000  6.260000
C  6.228000  9.264000  6.779000
C  6.338000  8.731000  8.089000
H  7.244000  8.814000  8.748000
C  5.179000  8.098000  8.700000
H  5.246000  7.732000  9.727000
C  3.965000  8.062000  7.999000
O  2.821000  7.506000  8.432000
C  3.853000  8.681000  6.727000
C  5.025000  9.291000  6.165000
H  4.975000  9.768000  5.122000
O  2.644000  8.710000  6.114000
C  2.742000  6.907000  9.724000
H  2.782000  7.652000  10.498000
H  1.665000  6.550000  9.714000
H  3.477000  6.137000  9.873000
C  2.383000  8.907000  4.683000
H  2.507000  10.017000  4.363000
H  3.017000  8.364000  4.011000
H  1.349000  8.631000  4.541000
20
Lattice="25.0 0.0 0.0 0.0 25.0 0.0 0.0 0.0 50.0" Properties=species:S:1:pos:R:3 pbc="F F F" Time = 0.0 Energy= 281.496
H  6.928000  9.697000  6.319000
C  6.000000  9.259000  6.746000
C  6.082000  8.639000  7.983000
H  7.052000  8.494000  8.537000
C  4.951000  8.092000  8.532000
H  4.935000  7.554000  9.463000
C  3.784000  8.101000  7.767000
O  2.630000  7.481000  8.278000
C  3.693000  8.746000  6.489000
C  4.819000  9.308000  5.995000
H  4.869000  9.828000  5.073000
O  2.469000  8.890000  5.798000
C  2.638000  6.497000  9.387000
H  3.219000  6.723000  10.305000
H  1.597000  6.432000  9.631000
H  3.060000  5.536000  8.984000
C  2.424000  8.909000  4.362000
H  2.668000  9.955000  3.998000
H  2.975000  8.083000  3.924000
H  1.256000  8.830000  4.246000
20
Lattice="25.0 0.0 0.0 0.0 25.0 0.0 0.0 0.0 50.0" Properties=species:S:1:pos:R:3 pbc="F F F" Time = 0.0 Energy= 286.899
H  6.795000  9.752000  7.026000
C  5.919000  9.128000  7.191000
C  5.815000  8.328000  8.344000
H  6.617000  8.468000  9.097000
C  4.712000  7.480000  8.677000
H  4.684000  6.964000  9.669000
C  3.681000  7.520000  7.764000
O  2.496000  6.921000  7.972000
C  3.774000  8.322000  6.600000
C  4.883000  9.154000  6.295000
H  4.881000  9.717000  5.331000
O  2.603000  8.235000  5.916000
C  2.397000  6.164000  9.211000
H  2.660000  6.820000  10.053000
H  1.385000  5.946000  9.306000
H  3.066000  5.262000  9.238000
C  2.557000  8.894000  4.647000
H  2.877000  9.925000  4.739000
H  3.169000  8.370000  3.955000
H  1.443000  8.711000  4.376000
20
Lattice="25.0 0.0 0.0 0.0 25.0 0.0 0.0 0.0 50.0" Properties=species:S:1:pos:R:3 pbc="F F F" Time = 0.0 Energy= 285.105
H  6.876000  9.531000  6.894000
C  6.015000  8.950000  7.137000
C  6.096000  8.116000  8.256000
H  6.965000  8.093000  8.886000
C  4.972000  7.401000  8.763000
H  4.993000  6.920000  9.789000
C  3.774000  7.496000  7.937000
O  2.639000  6.825000  8.205000
C  3.670000  8.395000  6.864000
C  4.807000  9.064000  6.477000
H  4.691000  9.770000  5.640000
O  2.487000  8.503000  6.202000
C  2.635000  5.952000  9.326000
H  2.339000  6.438000  10.298000
H  1.832000  5.287000  9.117000
H  3.672000  5.472000  9.476000
C  2.651000  8.820000  4.845000
H  2.860000  9.865000  4.625000
H  3.463000  8.192000  4.419000
H  1.666000  8.549000  4.257000
20