# LAMMPS data file written by OVITO Pro 3.7.11 - had to change the boxes to agree with XYZ file
54 atoms
1 atom types
0.0 9.96000003815 xlo xhi
0.0 9.96000003815 ylo yhi
0.0 9.96000003815 zlo zhi

Masses

1 180.9479  # Ta

Atoms  # atomic

1 1 0.03088 9.94467 0.03567
2 1 1.76644 1.66184 1.44089
3 1 3.15336 9.91786 0.09806
4 1 9.90797 3.4076 9.86152
5 1 3.35029 3.41556 0.08196
6 1 9.87659 0.24016 3.2897
7 1 3.19754 9.8139 3.31195
8 1 0.08403 3.3137 3.13958
9 1 3.39974 3.48704 3.44694
10 1 5.07318 1.57764 1.57293
11 1 6.63264 0.09181 0.15115
12 1 8.39478 1.48796 1.58174
13 1 6.7258 3.35837 9.78756
14 1 6.62212 0.16031 3.16166
15 1 6.62042 3.31664 3.31262
16 1 1.54439 4.91527 1.83097
17 1 9.86899 6.74766 0.03204
18 1 1.53276 8.30182 1.78092
19 1 3.20199 6.66207 0.08252
20 1 9.8179 6.83547 3.1511
21 1 3.2641 6.51799 3.20131
22 1 5.01293 5.01666 1.65694
23 1 8.3041 4.93065 1.67994
24 1 4.92858 8.36431 1.64619
25 1 6.45171 6.49288 9.86487
26 1 8.17019 8.46521 1.78178
27 1 6.49459 6.44867 3.32152
28 1 1.68005 1.47471 4.81754
29 1 9.84583 0.19765 6.76751
30 1 1.69522 1.63512 8.38002
31 1 3.48664 0.05215 6.57542
32 1 0.12798 3.32081 6.73112
33 1 3.10095 3.36454 6.48278
34 1 4.85343 1.62817 5.0425
35 1 8.36737 1.67732 5.00314
36 1 4.90899 1.80105 8.38128
37 1 6.62609 9.89334 6.61756
38 1 8.0983 1.79178 8.16645
39 1 6.55346 3.46095 6.83157
40 1 1.66233 5.09512 5.00854
41 1 1.62699 8.17655 5.00487
42 1 1.55751 4.87741 8.21882
43 1 0.00182 6.68339 6.71874
44 1 1.55288 8.27814 8.30093
45 1 3.53869 6.81025 6.55411
46 1 4.93422 5.11727 5.01126
47 1 8.47308 4.97388 4.90308
48 1 4.85618 8.3031 5.00957
49 1 8.16403 8.34109 4.92427
50 1 4.93491 4.96157 8.29899
51 1 8.30629 4.96656 8.34881
52 1 5.1789 8.11229 8.35024
53 1 6.73281 6.78612 6.82621
54 1 8.11993 8.34071 8.16079
