54
 Atoms. Timestep: 0
1 0 0 0
1 1.658 1.658 1.658
1 3.316 0 0
1 4.974 1.658 1.658
1 6.632 0 0
1 8.29 1.658 1.658
1 0 3.316 0
1 1.658 4.974 1.658
1 3.316 3.316 0
1 4.974 4.974 1.658
1 6.632 3.316 0
1 8.29 4.974 1.658
1 0 6.632 0
1 1.658 8.29 1.658
1 3.316 6.632 0
1 4.974 8.29 1.658
1 6.632 6.632 0
1 8.29 8.29 1.658
1 0 0 3.316
1 3.316 0 3.316
1 6.632 0 3.316
1 0 3.316 3.316
1 3.316 3.316 3.316
1 6.632 3.316 3.316
1 0 6.632 3.316
1 3.316 6.632 3.316
1 6.632 6.632 3.316
1 1.658 1.658 4.974
1 4.974 1.658 4.974
1 8.29 1.658 4.974
1 1.658 4.974 4.974
1 4.974 4.974 4.974
1 8.29 4.974 4.974
1 1.658 8.29 4.974
1 4.974 8.29 4.974
1 8.29 8.29 4.974
1 0 0 6.632
1 1.658 1.658 8.29
1 3.316 0 6.632
1 4.974 1.658 8.29
1 6.632 0 6.632
1 8.29 1.658 8.29
1 0 3.316 6.632
1 1.658 4.974 8.29
1 3.316 3.316 6.632
1 4.974 4.974 8.29
1 6.632 3.316 6.632
1 8.29 4.974 8.29
1 0 6.632 6.632
1 1.658 8.29 8.29
1 3.316 6.632 6.632
1 4.974 8.29 8.29
1 6.632 6.632 6.632
1 8.29 8.29 8.29
54
 Atoms. Timestep: 10
1 -0.00022047 0.00298933 0.0108398
1 1.64201 1.66661 1.6549
1 3.30051 0.00942384 0.0145257
1 4.97113 1.66192 1.65156
1 6.63729 -0.0136217 -0.000982639
1 8.30065 1.66953 1.6381
1 0.0135037 3.32022 -0.0172419
1 1.63795 4.97161 1.65537
1 3.30993 3.29928 -0.0127766
1 4.98977 4.99403 1.64692
1 6.61409 3.32814 -0.0199044
1 8.2918 4.96941 1.65587
1 -0.00474243 6.6197 -0.0117546
1 1.65131 8.28915 1.65317
1 3.30399 6.62649 0.0163589
1 4.96242 8.27457 1.67496
1 6.62679 6.64422 0.013711
1 8.29393 8.27793 1.66249
1 0.0161385 -0.013981 3.32038
1 3.29867 0.0130608 3.32004
1 6.64195 0.0166982 3.31228
1 0.0175207 3.33286 3.33489
1 3.32136 3.30227 3.32652
1 6.62839 3.30841 3.31404
1 0.00146274 6.62329 3.30084
1 3.32241 6.62537 3.3091
1 6.63529 6.62382 3.33438
1 1.64785 1.63871 4.96845
1 4.96862 1.66912 4.96307
1 8.30616 1.64384 4.97692
1 1.66087 4.97918 4.97413
1 4.97047 4.98208 4.97636
1 8.29941 4.99187 4.98184
1 1.6375 8.28663 4.96859
1 4.97984 8.27289 4.99099
1 8.30932 8.30686 4.97372
1 0.0200567 0.0159907 6.64589
1 1.64197 1.66588 8.3086
1 3.32339 0.00464237 6.6436
1 4.96271 1.67313 8.29072
1 6.63562 -0.0113905 6.65083
1 8.30539 1.64308 8.28628
1 8.98357e-05 3.31817 6.62906
1 1.66151 4.95567 8.28766
1 3.32698 3.3034 6.61805
1 4.95607 4.97781 8.29208
1 6.63839 3.33429 6.61975
1 8.27011 4.97922 8.30736
1 0.00260526 6.6443 6.62466
1 1.6504 8.27963 8.28166
1 3.32185 6.61461 6.61708
1 4.97925 8.29672 8.29965
1 6.63737 6.61431 6.61215
1 8.29093 8.30595 8.28228
54
 Atoms. Timestep: 20
1 -0.000482183 0.00590517 0.0216286
1 1.62614 1.67518 1.65189
1 3.28512 0.0187212 0.0289491
1 4.96833 1.66579 1.64516
1 6.64248 -0.0271154 -0.00188536
1 8.31119 1.68103 1.61837
1 0.0267595 3.32442 -0.0343407
1 1.61815 4.96914 1.65275
1 3.30391 3.28274 -0.0253711
1 5.00535 5.01383 1.63592
1 6.5963 3.34016 -0.0396728
1 8.29353 4.9648 1.65372
1 -0.00950869 6.60754 -0.0234819
1 1.64468 8.28824 1.64837
1 3.29202 6.62105 0.0325438
1 4.95094 8.25936 1.69186
1 6.62158 6.65641 0.027286
1 8.29779 8.26599 1.66701
1 0.0320738 -0.0278287 3.3246
1 3.28156 0.0259322 3.32408
1 6.65182 0.0332725 3.30861
1 0.0348568 3.3496 3.35363
1 3.32667 3.28869 3.33686
1 6.62487 3.30087 3.31205
1 0.00288979 6.61468 3.28579
1 3.32875 6.61878 3.30224
1 6.63858 6.61577 3.35264
1 1.63786 1.61958 4.96299
1 4.96341 1.68005 4.95227
1 8.32219 1.62981 4.97982
1 1.66376 4.98432 4.97423
1 4.96701 4.99002 4.97861
1 8.30881 5.00953 4.98957
1 1.6173 8.28327 4.96329
1 4.98566 8.25601 5.00784
1 8.32847 8.32363 4.97344
1 0.0399833 0.0318114 6.65969
1 1.62612 1.67366 8.32698
1 3.33076 0.00921634 6.65515
1 4.95156 1.68806 8.29142
1 6.63914 -0.0225963 6.66946
1 8.32056 1.62837 8.28259
1 0.000128193 3.32032 6.62611
1 1.66502 4.93753 8.28523
1 3.33782 3.29086 6.60417
1 4.93828 4.98162 8.29416
1 6.64477 3.35242 6.6076
1 8.25036 4.98445 8.32449
1 0.00517785 6.65648 6.61746
1 1.64294 8.26932 8.27343
1 3.3276 6.59742 6.60234
1 4.98437 8.30332 8.30922
1 6.64273 6.59685 6.59253
1 8.29185 8.32172 8.27466
54
 Atoms. Timestep: 30
1 -0.000829334 0.00867406 0.0323274
1 1.61049 1.68366 1.64903
1 3.26994 0.0277782 0.0431785
1 4.96568 1.66956 1.63881
1 6.64748 -0.0403542 -0.00262718
1 8.32154 1.69247 1.59896
1 0.0395086 3.32859 -0.0511436
1 1.59884 4.96655 1.65015
1 3.29797 3.26655 -0.0375971
1 5.02058 5.03318 1.6251
1 6.57873 3.35193 -0.0591854
1 8.29512 4.96013 1.65151
1 -0.0143235 6.59561 -0.035157
1 1.63818 8.28721 1.64363
1 3.28012 6.61575 0.0483836
1 4.93967 8.24459 1.70868
1 6.61639 6.66855 0.0405903
1 8.30154 8.25428 1.67159
1 0.0476 -0.0414208 3.3285
1 3.26486 0.0384414 3.32814
1 6.6615 0.049606 3.30504
1 0.0518343 3.36607 3.37208
1 3.33187 3.27541 3.34687
1 6.62154 3.29341 3.31004
1 0.00424019 6.60625 3.27096
1 3.33492 6.61228 3.29548
1 6.64189 6.60795 3.37066
1 1.62819 1.60076 4.95772
1 4.95856 1.69057 4.94177
1 8.33796 1.61605 4.98269
1 1.66673 4.98938 4.97429
1 4.96369 4.99767 4.9806
1 8.31819 5.02681 4.99707
1 1.59769 8.27993 4.9582
1 4.99146 8.23958 5.02442
1 8.34732 8.34023 4.97315
1 0.0596501 0.0472884 6.67328
1 1.61068 1.68125 8.34494
1 3.33811 0.013669 6.66661
1 4.94072 1.70258 8.29205
1 6.64247 -0.0334449 6.6877
1 8.33533 1.61406 8.27897
1 6.31136e-05 3.32244 6.62314
1 1.66857 4.91973 8.28264
1 3.34838 3.27847 6.5904
1 4.92079 4.98545 8.29625
1 6.65112 3.37025 6.59567
1 8.23087 4.98969 8.34119
1 0.00767452 6.66842 6.61054
1 1.63573 8.25912 8.2654
1 3.33315 6.5806 6.58799
1 4.98925 8.30972 8.31865
1 6.64804 6.57986 6.57339
1 8.29274 8.33712 8.26725
54
 Atoms. Timestep: 40
1 -0.00131199 0.0112192 0.0428968
1 1.59516 1.69202 1.64643
1 3.25507 0.0364838 0.0571266
1 4.96325 1.67318 1.63253
1 6.6522 -0.0532117 -0.00312523
1 8.33161 1.70379 1.58003
1 0.0514676 3.33271 -0.0674783
1 1.58025 4.96379 1.64755
1 3.29214 3.25091 -0.0492508
1 5.03529 5.05185 1.61455
1 6.56149 3.36334 -0.0783237
1 8.29652 4.95538 1.64923
1 -0.0192114 6.58405 -0.0467504
1 1.63186 8.28602 1.63899
1 3.26831 6.61066 0.0637057
1 4.9287 8.23047 1.72536
1 6.61121 6.68059 0.0534863
1 8.30513 8.2429 1.67627
1 0.062499 -0.0546347 3.33188
1 3.24877 0.0504196 3.3322
1 6.67095 0.0655844 3.30161
1 0.0682733 3.38214 3.39011
1 3.33692 3.26257 3.35639
1 6.61848 3.2861 3.30801
1 0.00546489 6.59812 3.25646
1 3.34086 6.6059 3.28888
1 6.64523 6.6005 3.38832
1 1.61902 1.58244 4.95273
1 4.95426 1.70048 4.9317
1 8.35335 1.6027 4.98553
1 1.66983 4.99434 4.97428
1 4.96059 5.00485 4.9822
1 8.32757 5.04348 5.00422
1 1.57894 8.27658 4.95343
1 4.99721 8.22381 5.04059
1 8.36571 8.35657 4.97285
1 0.0789078 0.0622281 6.68654
1 1.59588 1.68854 8.36226
1 3.34542 0.0179545 6.67794
1 4.93035 1.71648 8.29257
1 6.64551 -0.0437655 6.70536
1 8.34949 1.60038 8.27545
1 -0.000154373 3.32454 6.62015
1 1.67216 4.90248 8.27979
1 3.35851 3.26629 6.57681
1 4.90374 4.98932 8.29836
1 6.65741 3.38764 6.58403
1 8.21178 4.99495 8.3572
1 0.0100476 6.68 6.60403
1 1.6289 8.2491 8.25767
1 3.33839 6.56437 6.57421
1 4.99376 8.31582 8.32788
1 6.65326 6.56361 6.55497
1 8.2936 8.35196 8.26014
54
 Atoms. Timestep: 50
1 -0.00198235 0.0134622 0.0532923
1 1.58027 1.7002 1.64415
1 3.24061 0.0447298 0.0707095
1 4.96111 1.67659 1.62634
1 6.65655 -0.0655598 -0.00329439
1 8.34129 1.71497 1.56174
1 0.0623294 3.33675 -0.0831544
1 1.56262 4.96083 1.64495
1 3.28645 3.23604 -0.0601109
1 5.0493 5.0696 1.60437
1 6.5447 3.37425 -0.0969644
1 8.29766 4.95054 1.64682
1 -0.0241916 6.57297 -0.0582252
1 1.62578 8.28458 1.63449
1 3.25663 6.60585 0.0783378
1 4.91815 8.21719 1.74186
1 6.60605 6.69253 0.0658314
1 8.3085 8.23195 1.68108
1 0.0765382 -0.0673458 3.33453
1 3.23347 0.0616983 3.33626
1 6.68009 0.0810961 3.29835
1 0.0839857 3.39766 3.40756
1 3.34172 3.2503 3.36525
1 6.61577 3.27899 3.30596
1 0.00651003 6.59041 3.24239
1 3.34644 6.59969 3.28249
1 6.64859 6.59352 3.40546
1 1.61054 1.56482 4.94815
1 4.95072 1.70955 4.92222
1 8.36824 1.58988 4.98833
1 1.67311 4.99917 4.97419
1 4.95782 5.01134 4.98325
1 8.33699 5.05934 5.01085
1 1.56133 8.27322 4.94909
1 5.00289 8.20893 5.0562
1 8.3835 8.37255 4.97258
1 0.0975844 0.0764135 6.69934
1 1.58198 1.69542 8.3787
1 3.35269 0.022031 6.68911
1 4.92059 1.72951 8.29293
1 6.64816 -0.0533892 6.72222
1 8.36286 1.58753 8.27207
1 -0.000571799 3.32659 6.61716
1 1.67583 4.88594 8.27658
1 3.36804 3.25444 6.5635
1 4.88727 4.99325 8.3005
1 6.66363 3.40443 6.57281
1 8.19327 5.00025 8.3723
1 0.0122467 6.69112 6.59806
1 1.62258 8.23931 8.25034
1 3.34318 6.54893 6.56123
1 4.99778 8.3215 8.33685
1 6.65834 6.54837 6.53753
1 8.29445 8.36605 8.25345
54
 Atoms. Timestep: 60
1 -0.00289245 0.0153239 0.0634617
1 1.56595 1.70817 1.64229
1 3.22668 0.0524099 0.0838455
1 4.95934 1.67975 1.62026
1 6.66045 -0.0772693 -0.00304905
1 8.35048 1.72593 1.54425
1 0.0717683 3.34074 -0.097967
1 1.54618 4.95764 1.64231
1 3.28092 3.22218 -0.0699417
1 5.06243 5.08617 1.59466
1 6.52849 3.38452 -0.114977
1 8.29851 4.94558 1.64428
1 -0.0292751 6.56246 -0.0695351
1 1.62001 8.28284 1.63015
1 3.24512 6.60138 0.0921099
1 4.90812 8.20497 1.75812
1 6.60092 6.70433 0.0774805
1 8.31161 8.22151 1.68605
1 0.0894747 -0.0794269 3.33622
1 3.21916 0.0721071 3.3403
1 6.68888 0.0960308 3.2953
1 0.0987756 3.41245 3.42427
1 3.34619 3.23877 3.37329
1 6.61351 3.27212 3.30392
1 0.00732035 6.58325 3.22887
1 3.35158 6.59367 3.27639
1 6.65198 6.58714 3.42192
1 1.60296 1.54813 4.94407
1 4.94813 1.71756 4.91348
1 8.38249 1.57776 4.99112
1 1.67663 5.00385 4.97402
1 4.95547 5.01692 4.9836
1 8.34646 5.07414 5.01683
1 1.54512 8.26984 4.94528
1 5.00848 8.19516 5.0711
1 8.40053 8.38805 4.97236
1 0.115487 0.0896061 6.71154
1 1.5693 1.70177 8.39401
1 3.35992 0.0258601 6.70007
1 4.9116 1.74144 8.29305
1 6.65033 -0.0621502 6.73805
1 8.37523 1.57574 8.26888
1 -0.00123425 3.32861 6.61417
1 1.67961 4.87033 8.2729
1 3.37683 3.24302 6.55054
1 4.87156 4.99727 8.30266
1 6.66974 3.4205 6.56209
1 8.17552 5.0056 8.3862
1 0.0142194 6.70165 6.59274
1 1.6169 8.22982 8.24351
1 3.3474 6.53449 6.54926
1 5.00117 8.32667 8.3455
1 6.66321 6.53446 6.52136
1 8.2953 8.37916 8.24731
54
 Atoms. Timestep: 70
1 -0.00408972 0.0167261 0.0733429
1 1.55232 1.71587 1.64094
1 3.21341 0.0594225 0.0964542
1 4.95799 1.68261 1.61431
1 6.66382 -0.0882114 -0.00230539
1 8.35908 1.73662 1.52774
1 0.0794507 3.34466 -0.111703
1 1.53116 4.95422 1.63963
1 3.2756 3.20958 -0.0785004
1 5.0745 5.10129 1.58557
1 6.51296 3.39403 -0.132221
1 8.299 4.94051 1.64155
1 -0.0344641 6.55264 -0.0806242
1 1.6146 8.28072 1.62602
1 3.23381 6.59735 0.104858
1 4.89873 8.19402 1.77407
1 6.59584 6.71598 0.0882875
1 8.3144 8.21167 1.6912
1 0.101063 -0.0907483 3.33672
1 3.20601 0.0814748 3.34428
1 6.69727 0.110279 3.29248
1 0.112441 3.42633 3.44009
1 3.35023 3.22811 3.38033
1 6.61178 3.26555 3.30191
1 0.00784253 6.57676 3.216
1 3.35614 6.58785 3.27069
1 6.6554 6.58146 3.43751
1 1.59648 1.53261 4.94062
1 4.94672 1.72429 4.90563
1 8.39599 1.56646 4.9939
1 1.68043 5.00837 4.97374
1 4.95364 5.02135 4.98308
1 8.35602 5.08767 5.02198
1 1.53057 8.2664 4.94212
1 5.01393 8.18272 5.08514
1 8.41665 8.40291 4.97221
1 0.132407 0.101553 6.72298
1 1.55815 1.70744 8.40794
1 3.36707 0.0294061 6.71078
1 4.90355 1.75202 8.29286
1 6.65191 -0.0698877 6.75265
1 8.38641 1.56524 8.26593
1 -0.00218175 3.33057 6.61121
1 1.68353 4.85584 8.26864
1 3.38469 3.23216 6.53806
1 4.85675 5.00141 8.30486
1 6.67571 3.43567 6.55198
1 8.15872 5.01102 8.39865
1 0.0159118 6.71148 6.58822
1 1.61197 8.22071 8.2373
1 3.35091 6.5213 6.53853
1 5.00383 8.33122 8.35376
1 6.66776 6.52221 6.50675
1 8.29618 8.39107 8.24186
54
 Atoms. Timestep: 80
1 -0.0056133 0.0175958 0.0828632
1 1.5395 1.72325 1.64016
1 3.20091 0.0656727 0.108457
1 4.95712 1.68512 1.60852
1 6.66661 -0.0982603 -0.000984353
1 8.367 1.74697 1.51238
1 0.0850516 3.34855 -0.124152
1 1.51777 4.95057 1.63686
1 3.27052 3.1985 -0.0855481
1 5.08532 5.11469 1.57722
1 6.49826 3.40265 -0.148549
1 8.2991 4.93534 1.63864
1 -0.0397516 6.54359 -0.0914278
1 1.60961 8.27815 1.62213
1 3.22276 6.5938 0.116425
1 4.89011 8.18452 1.78963
1 6.59084 6.72745 0.0981093
1 8.31685 8.20249 1.69654
1 0.111067 -0.10118 3.3358
1 3.19419 0.0896317 3.34817
1 6.70523 0.123734 3.28991
1 0.124781 3.4391 3.45484
1 3.35375 3.21849 3.38619
1 6.61064 3.25935 3.29995
1 0.0080291 6.57108 3.2039
1 3.36 6.58226 3.26547
1 6.65884 6.5766 3.45203
1 1.59128 1.51851 4.9379
1 4.94667 1.72953 4.89882
1 8.4086 1.55613 4.9967
1 1.68457 5.01273 4.97337
1 4.95243 5.02443 4.98155
1 8.36572 5.09968 5.02615
1 1.51793 8.26288 4.93971
1 5.01922 8.17182 5.09814
1 8.4317 8.417 4.9722
1 0.14813 0.111995 6.73349
1 1.54884 1.71231 8.42024
1 3.37413 0.032635 6.72117
1 4.89658 1.761 8.2923
1 6.65282 -0.076451 6.76577
1 8.39621 1.55626 8.26327
1 -0.00344624 3.33248 6.6083
1 1.68762 4.84268 8.2637
1 3.39148 3.222 6.52617
1 4.84301 5.00569 8.30707
1 6.68148 3.4498 6.54259
1 8.14307 5.01654 8.40937
1 0.0172704 6.72049 6.58462
1 1.60792 8.21203 8.23182
1 3.35359 6.50957 6.52923
1 5.00562 8.33506 8.36157
1 6.67192 6.51193 6.49401
1 8.29714 8.40157 8.23723
54
 Atoms. Timestep: 90
1 -0.00749139 0.0178686 0.0919398
1 1.52763 1.73025 1.64003
1 3.18931 0.0710738 0.119775
1 4.95678 1.68726 1.60292
1 6.66877 -0.107297 0.000984602
1 8.37414 1.75694 1.49834
1 0.0882759 3.35241 -0.135127
1 1.50621 4.94669 1.634
1 3.26572 3.18917 -0.0908635
1 5.09473 5.1261 1.56975
1 6.48449 3.41027 -0.16381
1 8.29875 4.93007 1.63552
1 -0.0451207 6.53539 -0.101873
1 1.60511 8.27508 1.61852
1 3.21202 6.59083 0.126666
1 4.88239 8.17668 1.80469
1 6.58593 6.73872 0.10681
1 8.31891 8.19405 1.70206
1 0.119273 -0.110595 3.33327
1 3.18388 0.0964147 3.35192
1 6.71273 0.136289 3.28762
1 0.135597 3.45058 3.46835
1 3.35664 3.21005 3.39074
1 6.61018 3.25359 3.29808
1 0.00784259 6.56633 3.1927
1 3.36304 6.57689 3.26086
1 6.66229 6.57265 3.46528
1 1.58753 1.50607 4.936
1 4.94814 1.73308 4.89318
1 8.42023 1.54693 4.99953
1 1.68906 5.01691 4.97289
1 4.95193 5.02592 4.97889
1 8.37557 5.10996 5.02918
1 1.50745 8.25927 4.93812
1 5.02429 8.16266 5.10994
1 8.44549 8.43014 4.97235
1 0.162444 0.120683 6.74293
1 1.54169 1.71624 8.43068
1 3.38107 0.0355146 6.7312
1 4.89082 1.76815 8.29129
1 6.65297 -0.0817058 6.77722
1 8.40444 1.54898 8.26096
1 -0.00504833 3.33432 6.60548
1 1.69193 4.83104 8.25799
1 3.39705 3.21266 6.51499
1 4.83048 5.01012 8.3093
1 6.68699 3.46274 6.53401
1 8.12878 5.02219 8.41809
1 0.0182447 6.72855 6.58203
1 1.60485 8.20387 8.22719
1 3.35534 6.4995 6.52157
1 5.00643 8.33807 8.36885
1 6.6756 6.50394 6.48341
1 8.29823 8.41042 8.23357
54
 Atoms. Timestep: 100
1 -0.00973889 0.0174922 0.100482
1 1.51682 1.73684 1.64061
1 3.17872 0.0755501 0.130335
1 4.95699 1.68897 1.59753
1 6.67025 -0.115213 0.003659
1 8.3804 1.76646 1.48577
1 0.0888828 3.35626 -0.144473
1 1.49664 4.94261 1.63101
1 3.26126 3.18182 -0.0942568
1 5.10257 5.1353 1.56331
1 6.4718 3.41678 -0.177851
1 8.29793 4.92473 1.63218
1 -0.0505445 6.52813 -0.111879
1 1.60112 8.27144 1.61523
1 3.20166 6.58847 0.135453
1 4.87569 8.17068 1.81915
1 6.58116 6.74976 0.114268
1 8.32053 8.18641 1.70776
1 0.125506 -0.118873 3.32898
1 3.17521 0.101673 3.35548
1 6.71973 0.14784 3.28561
1 0.144708 3.46058 3.48045
1 3.35882 3.20291 3.39383
1 6.61045 3.24833 3.29631
1 0.0072596 6.56261 3.18251
1 3.36514 6.57173 3.25698
1 6.66573 6.56968 3.47704
1 1.58535 1.49552 4.93499
1 4.95129 1.73481 4.88882
1 8.43075 1.53896 5.00241
1 1.69394 5.02092 4.97232
1 4.9522 5.02569 4.97501
1 8.38557 5.11834 5.03093
1 1.49933 8.25557 4.93744
1 5.02909 8.15541 5.12041
1 8.45789 8.44219 4.97272
1 0.175153 0.127388 6.75116
1 1.53694 1.71912 8.43906
1 3.38785 0.0380134 6.74079
1 4.88638 1.7733 8.28978
1 6.65228 -0.0855411 6.78681
1 8.41095 1.5436 8.25904
1 -0.00699437 3.3361 6.60279
1 1.69647 4.82109 8.25146
1 3.40128 3.20426 6.50464
1 4.8193 5.01474 8.3115
1 6.6922 3.47435 6.52633
1 8.11602 5.02797 8.42457
1 0.0187911 6.73557 6.58056
1 1.60286 8.19629 8.22352
1 3.35608 6.49128 6.51571
1 5.00617 8.34017 8.37553
1 6.6787 6.49848 6.47523
1 8.29948 8.41745 8.23097
54
 Atoms. Timestep: 110
1 -0.0123557 0.0164295 0.108393
1 1.50718 1.74296 1.64194
1 3.16924 0.0790386 0.140065
1 4.95776 1.69024 1.59241
1 6.67102 -0.121913 0.00707872
1 8.3857 1.7755 1.47482
1 0.086709 3.3601 -0.152093
1 1.48916 4.93833 1.62789
1 3.25719 3.17661 -0.0955826
1 5.10871 5.14209 1.55802
1 6.46029 3.4221 -0.190528
1 8.2966 4.91935 1.62863
1 -0.055987 6.52186 -0.121362
1 1.59769 8.26719 1.6123
1 3.19175 6.58678 0.14267
1 4.87014 8.16669 1.83291
1 6.57655 6.76054 0.12038
1 8.32167 8.17961 1.71361
1 0.129642 -0.125904 3.32284
1 3.16833 0.105275 3.35878
1 6.72623 0.158289 3.2839
1 0.151956 3.46893 3.49099
1 3.36024 3.19717 3.39537
1 6.61151 3.24364 3.29467
1 0.00627441 6.56 3.17342
1 3.36621 6.56675 3.25393
1 6.66915 6.56775 3.48713
1 1.58483 1.48703 4.93493
1 4.95618 1.73459 4.88583
1 8.44008 1.53237 5.00536
1 1.69921 5.02475 4.97165
1 4.95329 5.02362 4.96987
1 8.3957 5.12467 5.0313
1 1.49372 8.2518 4.93768
1 5.03356 8.15022 5.1294
1 8.46874 8.453 4.97335
1 0.186081 0.13192 6.75807
1 1.53479 1.72087 8.44526
1 3.39442 0.0401003 6.74987
1 4.88333 1.77628 8.28772
1 6.65074 -0.0878774 6.79439
1 8.41561 1.54026 8.25755
1 -0.00927414 3.33779 6.60026
1 1.70125 4.81296 8.24406
1 3.40408 3.19691 6.49523
1 4.80958 5.01954 8.31365
1 6.69703 3.4845 6.51963
1 8.10494 5.03391 8.42861
1 0.0188764 6.74144 6.58029
1 1.60204 8.18938 8.22092
1 3.35578 6.48505 6.51177
1 5.00476 8.34128 8.38154
1 6.68117 6.49576 6.46965
1 8.30094 8.42248 8.22956
54
 Atoms. Timestep: 120
1 -0.0153264 0.0146612 0.115577
1 1.49881 1.74856 1.64403
1 3.16098 0.0814902 0.148899
1 4.9591 1.69104 1.58759
1 6.67108 -0.127323 0.0112617
1 8.38996 1.78399 1.46562
1 0.0816883 3.36393 -0.157955
1 1.48388 4.9339 1.62464
1 3.25357 3.17367 -0.0947511
1 5.11304 5.14631 1.55398
1 6.45009 3.42618 -0.201712
1 8.29473 4.91397 1.62488
1 -0.0614049 6.51665 -0.130232
1 1.59484 8.26231 1.60977
1 3.18238 6.58577 0.148222
1 4.86583 8.16483 1.84586
1 6.57213 6.77101 0.125067
1 8.32229 8.1737 1.71955
1 0.131617 -0.131596 3.31483
1 3.16333 0.107115 3.36179
1 6.73219 0.167539 3.28249
1 0.157212 3.47549 3.49982
1 3.36087 3.19286 3.39529
1 6.61341 3.23958 3.29317
1 0.00490179 6.55856 3.16553
1 3.36619 6.56194 3.25184
1 6.67253 6.5669 3.49537
1 1.586 1.48073 4.93584
1 4.96284 1.73239 4.88426
1 8.44814 1.52724 5.00839
1 1.70483 5.02839 4.9709
1 4.95521 5.01967 4.96348
1 8.40585 5.12887 5.03023
1 1.49076 8.24799 4.93887
1 5.03764 8.14722 5.13679
1 8.4779 8.46243 4.97427
1 0.195085 0.134136 6.76357
1 1.53533 1.72145 8.44918
1 3.40074 0.0417431 6.75837
1 4.88172 1.77701 8.28509
1 6.64832 -0.0886729 6.79987
1 8.4183 1.53905 8.25652
1 -0.0118596 3.33938 6.59795
1 1.70623 4.80676 8.2358
1 3.40543 3.19069 6.48686
1 4.80141 5.02454 8.3157
1 6.70141 3.49308 6.51398
1 8.09567 5.04 8.43004
1 0.0184817 6.74607 6.58126
1 1.60244 8.1832 8.21947
1 3.35447 6.48091 6.50982
1 5.00215 8.34135 8.38684
1 6.68298 6.49588 6.46683
1 8.30261 8.42544 8.22939
54
 Atoms. Timestep: 130
1 -0.0186204 0.0121875 0.121938
1 1.49177 1.75362 1.64688
1 3.15399 0.0828712 0.156778
1 4.96096 1.69137 1.5831
1 6.67041 -0.131384 0.016201
1 8.39311 1.79192 1.45826
1 0.0738588 3.3677 -0.162096
1 1.4808 4.92933 1.62128
1 3.25045 3.17303 -0.0917349
1 5.1155 5.14789 1.55129
1 6.44133 3.429 -0.211293
1 8.29232 4.90862 1.62095
1 -0.0667495 6.51253 -0.138401
1 1.59258 8.2568 1.60767
1 3.17363 6.58546 0.152031
1 4.86285 8.16518 1.85789
1 6.56791 6.78109 0.128282
1 8.32235 8.16873 1.72554
1 0.131435 -0.135873 3.30504
1 3.16031 0.107119 3.36446
1 6.73761 0.175501 3.28139
1 0.160391 3.48016 3.50681
1 3.36073 3.19 3.39358
1 6.61617 3.23623 3.29185
1 0.00317848 6.55831 3.15893
1 3.36504 6.55729 3.25077
1 6.67584 6.56714 3.50163
1 1.58883 1.4767 4.9377
1 4.97125 1.72821 4.88414
1 8.45488 1.52365 5.0115
1 1.71077 5.03182 4.97006
1 4.95796 5.01389 4.95591
1 8.41592 5.13092 5.02769
1 1.49048 8.24422 4.94097
1 5.04126 8.14646 5.14249
1 8.4853 8.47038 4.97552
1 0.202054 0.133952 6.76763
1 1.53859 1.72089 8.45081
1 3.40674 0.0429079 6.76621
1 4.88156 1.77545 8.28191
1 6.64507 -0.0879279 6.80321
1 8.41896 1.54002 8.25596
1 -0.0147047 3.34086 6.59589
1 1.71138 4.80253 8.22672
1 3.40532 3.18567 6.47959
1 4.79487 5.02972 8.31761
1 6.70529 3.50001 6.50942
1 8.08827 5.04623 8.42873
1 0.0176058 6.74939 6.58351
1 1.60408 8.17781 8.21925
1 3.35221 6.4789 6.50988
1 4.99832 8.34036 8.39136
1 6.6841 6.49886 6.46682
1 8.30447 8.42627 8.2305
54
 Atoms. Timestep: 140
1 -0.0221934 0.00902961 0.12739
1 1.48612 1.7581 1.65046
1 3.14835 0.0831636 0.16365
1 4.96333 1.69122 1.57901
1 6.66902 -0.134064 0.0218628
1 8.3951 1.79925 1.45282
1 0.0633621 3.37138 -0.164622
1 1.47993 4.92468 1.61782
1 3.2479 3.1747 -0.0865719
1 5.11604 5.1468 1.54997
1 6.4341 3.43055 -0.219189
1 8.28937 4.90336 1.61686
1 -0.0719694 6.50955 -0.145785
1 1.5909 8.25069 1.60603
1 3.16561 6.58584 0.154042
1 4.86123 8.16778 1.86893
1 6.5639 6.79072 0.130012
1 8.32178 8.16473 1.73149
1 0.129161 -0.138679 3.29363
1 3.15931 0.105253 3.36676
1 6.74247 0.182091 3.2806
1 0.16145 3.48287 3.51186
1 3.35987 3.18855 3.39028
1 6.61981 3.23363 3.29069
1 0.00116319 6.55921 3.15368
1 3.36277 6.55279 3.25078
1 6.67905 6.56844 3.50582
1 1.59327 1.47493 4.94047
1 4.98128 1.72214 4.88549
1 8.46024 1.52167 5.01469
1 1.71696 5.03503 4.96912
1 4.96149 5.00637 4.94727
1 8.42574 5.13085 5.02373
1 1.4929 8.24056 4.94393
1 5.04436 8.14799 5.14643
1 8.49086 8.47676 4.97708
1 0.206921 0.131349 6.77025
1 1.54449 1.71924 8.4502
1 3.41235 0.0435584 6.7733
1 4.88282 1.77166 8.27821
1 6.64106 -0.0856843 6.80441
1 8.41756 1.54316 8.25586
1 -0.0177466 3.34221 6.59412
1 1.71663 4.80028 8.21691
1 3.40381 3.18187 6.47346
1 4.78997 5.03507 8.31933
1 6.70861 3.50521 6.506
1 8.08278 5.05256 8.42464
1 0.0162668 6.75137 6.58703
1 1.60698 8.17326 8.2203
1 3.3491 6.47903 6.51192
1 4.99329 8.3383 8.39508
1 6.68457 6.50462 6.4696
1 8.30649 8.42501 8.2329
54
 Atoms. Timestep: 150
1 -0.0259899 0.00522938 0.131857
1 1.48189 1.76197 1.65471
1 3.14409 0.0823653 0.169474
1 4.96613 1.6906 1.57535
1 6.66694 -0.135348 0.0281871
1 8.39588 1.80594 1.44936
1 0.0504328 3.37489 -0.165694
1 1.48119 4.91998 1.61432
1 3.24595 3.17858 -0.0793638
1 5.11467 5.1431 1.55006
1 6.42851 3.43086 -0.225349
1 8.28586 4.89824 1.61266
1 -0.0770129 6.5077 -0.1523
1 1.58977 8.244 1.60488
1 3.15842 6.58688 0.15422
1 4.861 8.17262 1.87889
1 6.5601 6.79978 0.130277
1 8.32055 8.16173 1.73732
1 0.124919 -0.139976 3.28083
1 3.16034 0.10152 3.36867
1 6.74675 0.187236 3.28013
1 0.160394 3.4836 3.51488
1 3.35836 3.18842 3.38544
1 6.62432 3.23184 3.28973
1 -0.00106515 6.5612 3.14984
1 3.35945 6.54846 3.2519
1 6.68216 6.57075 3.5079
1 1.5992 1.47537 4.94407
1 4.9928 1.7143 4.88827
1 8.46422 1.52133 5.01793
1 1.7233 5.03796 4.96808
1 4.96575 4.9973 4.93772
1 8.43509 5.12876 5.0184
1 1.49795 8.23711 4.94767
1 5.04687 8.1518 5.14856
1 8.49457 8.48154 4.97896
1 0.209659 0.126377 6.77146
1 1.55287 1.71662 8.44746
1 3.41749 0.043655 6.77956
1 4.88547 1.76572 8.27408
1 6.63642 -0.0820221 6.80355
1 8.41413 1.54843 8.25622
1 -0.0209082 3.34341 6.59267
1 1.72188 4.79995 8.20649
1 3.40101 3.17929 6.4685
1 4.78673 5.04057 8.3208
1 6.71132 3.50865 6.50373
1 8.07915 5.05893 8.41775
1 0.0145021 6.75199 6.59179
1 1.6111 8.16959 8.22266
1 3.3453 6.48123 6.51585
1 4.98708 8.33522 8.39797
1 6.68441 6.51299 6.47509
1 8.3086 8.42175 8.23653
54
 Atoms. Timestep: 160
1 -0.0299453 0.000848577 0.135276
1 1.47908 1.76521 1.65956
1 3.14123 0.0804892 0.174218
1 4.96932 1.68952 1.57218
1 6.66416 -0.135246 0.03509
1 8.39542 1.81197 1.44791
1 0.035379 3.37817 -0.165511
1 1.48449 4.91528 1.61082
1 3.24463 3.18452 -0.0702709
1 5.11142 5.1369 1.55153
1 6.42465 3.42999 -0.229753
1 8.28184 4.89332 1.60837
1 -0.0818309 6.507 -0.157875
1 1.58916 8.23683 1.60425
1 3.15216 6.58851 0.152552
1 4.86211 8.17961 1.88775
1 6.55648 6.80816 0.129131
1 8.31861 8.15977 1.74294
1 0.118876 -0.139746 3.26695
1 3.16341 0.0959651 3.37019
1 6.75045 0.19087 3.27999
1 0.157278 3.48235 3.51583
1 3.3563 3.18951 3.37916
1 6.6297 3.23089 3.28894
1 -0.00341092 6.56419 3.14743
1 3.35518 6.54434 3.2541
1 6.68513 6.57402 3.50787
1 1.6065 1.47791 4.9484
1 5.00559 1.70487 4.89244
1 8.46681 1.52262 5.0212
1 1.72967 5.04058 4.96693
1 4.97069 4.98689 4.92746
1 8.44376 5.1248 5.01181
1 1.50552 8.23396 4.95212
1 5.04875 8.15785 5.14888
1 8.49643 8.48469 4.98113
1 0.210285 0.119147 6.77134
1 1.56352 1.71317 8.44273
1 3.42209 0.043156 6.78492
1 4.88942 1.75781 8.26963
1 6.63129 -0.0770522 6.80073
1 8.40871 1.55572 8.25701
1 -0.0241022 3.34444 6.59156
1 1.72701 4.80147 8.19562
1 3.39707 3.17792 6.46469
1 4.78512 5.04616 8.32197
1 6.71337 3.51033 6.5026
1 8.07734 5.06528 8.40812
1 0.0123669 6.75126 6.5977
1 1.61638 8.16683 8.22633
1 3.34098 6.48541 6.52157
1 4.97977 8.33116 8.40002
1 6.68367 6.52376 6.4831
1 8.3107 8.41663 8.24134
54
 Atoms. Timestep: 170
1 -0.0339891 -0.0040334 0.137602
1 1.47768 1.76781 1.6649
1 3.13978 0.0775634 0.177863
1 4.97282 1.68801 1.56956
1 6.66074 -0.133783 0.042467
1 8.3937 1.81731 1.44846
1 0.0185588 3.38116 -0.164296
1 1.48968 4.91063 1.60738
1 3.24395 3.19232 -0.0595026
1 5.10636 5.12837 1.55433
1 6.42257 3.42801 -0.232411
1 8.2773 4.88866 1.60407
1 -0.0863791 6.50742 -0.162443
1 1.58903 8.22924 1.60416
1 3.14695 6.59069 0.149053
1 4.86451 8.18863 1.89545
1 6.55303 6.81573 0.126656
1 8.3159 8.15885 1.74822
1 0.111236 -0.137983 3.25233
1 3.16844 0.0886709 3.37134
1 6.75355 0.192944 3.2802
1 0.1522 3.47918 3.51468
1 3.35382 3.19168 3.37158
1 6.63592 3.23079 3.28834
1 -0.0057667 6.56804 3.14648
1 3.35009 6.54048 3.25733
1 6.68795 6.57815 3.5058
1 1.61501 1.48239 4.95334
1 5.01943 1.69407 4.89795
1 8.46804 1.52552 5.02447
1 1.73595 5.04284 4.96565
1 4.97621 4.97539 4.91671
1 8.45152 5.11913 5.0041
1 1.51545 8.2312 4.95716
1 5.04996 8.16602 5.1474
1 8.49649 8.48624 4.98354
1 0.208859 0.109832 6.77
1 1.57615 1.70902 8.43618
1 3.42606 0.042018 6.7893
1 4.89459 1.74814 8.26498
1 6.62584 -0.0709073 6.79612
1 8.40139 1.56488 8.25818
1 -0.0272347 3.34526 6.59081
1 1.73192 4.8047 8.18445
1 3.39218 3.17773 6.46203
1 4.78507 5.05181 8.32278
1 6.71475 3.51024 6.50261
1 8.07724 5.07151 8.39586
1 0.00993043 6.74922 6.60467
1 1.62272 8.165 8.23127
1 3.33632 6.49146 6.52893
1 4.97145 8.32622 8.40127
1 6.6824 6.53664 6.49343
1 8.31269 8.40987 8.24723
54
 Atoms. Timestep: 180
1 -0.0380485 -0.00932257 0.138803
1 1.47766 1.76974 1.67065
1 3.13971 0.0736289 0.180404
1 4.97654 1.68609 1.56752
1 6.65669 -0.131001 0.0502004
1 8.39071 1.82193 1.451
1 0.000355809 3.38381 -0.162276
1 1.4966 4.90608 1.60406
1 3.24389 3.20176 -0.0473074
1 5.09958 5.11773 1.55837
1 6.42229 3.425 -0.233358
1 8.27228 4.88433 1.59979
1 -0.0906194 6.50893 -0.165952
1 1.5893 8.22136 1.60464
1 3.14287 6.59332 0.143763
1 4.86809 8.19953 1.90198
1 6.5497 6.82238 0.122956
1 8.31239 8.15901 1.75305
1 0.102218 -0.134699 3.23734
1 3.17537 0.079755 3.37212
1 6.75603 0.193421 3.28075
1 0.145301 3.47417 3.51142
1 3.35102 3.19478 3.36281
1 6.64295 3.23157 3.2879
1 -0.00801935 6.5726 3.147
1 3.34436 6.53696 3.26153
1 6.69058 6.58303 3.50177
1 1.62457 1.48859 4.95877
1 5.03403 1.68215 4.90471
1 8.46794 1.52998 5.0277
1 1.74199 5.04467 4.96422
1 4.98225 4.96308 4.90566
1 8.45816 5.11196 4.9954
1 1.52759 8.22889 4.96271
1 5.05049 8.17619 5.14417
1 8.49483 8.48623 4.98614
1 0.205481 0.0986492 6.76757
1 1.59047 1.70434 8.42801
1 3.42934 0.0401987 6.79262
1 4.90088 1.73697 8.26029
1 6.62028 -0.0637322 6.78989
1 8.39229 1.57573 8.25969
1 -0.0302085 3.34587 6.59043
1 1.73647 4.8095 8.1732
1 3.38654 3.17864 6.46046
1 4.78653 5.05743 8.32319
1 6.71544 3.50844 6.50372
1 8.07871 5.07755 8.38113
1 0.00727192 6.74594 6.61257
1 1.63001 8.16413 8.23744
1 3.33151 6.4992 6.53773
1 4.96223 8.3205 8.40172
1 6.68066 6.55131 6.50582
1 8.31447 8.40167 8.25409
54
 Atoms. Timestep: 190
1 -0.0420512 -0.0149141 0.138867
1 1.47896 1.77101 1.67667
1 3.14099 0.0687389 0.181848
1 4.98041 1.68379 1.56612
1 6.65206 -0.126952 0.058167
1 8.38646 1.82579 1.45548
1 -0.018843 3.38608 -0.159664
1 1.50505 4.90168 1.60092
1 3.24443 3.21256 -0.0339597
1 5.09121 5.1052 1.56356
1 6.42383 3.42107 -0.232654
1 8.26679 4.88041 1.59561
1 -0.0945215 6.51148 -0.168358
1 1.58994 8.2133 1.60568
1 3.14001 6.59633 0.136749
1 4.87271 8.21212 1.90732
1 6.54649 6.828 0.118153
1 8.30806 8.16025 1.75733
1 0.0920465 -0.12992 3.22233
1 3.18408 0.0693638 3.37256
1 6.7579 0.192281 3.28168
1 0.136754 3.4674 3.50608
1 3.34801 3.1987 3.35301
1 6.65074 3.23321 3.2876
1 -0.0100582 6.57772 3.14896
1 3.33816 6.53387 3.26657
1 6.69301 6.58854 3.49591
1 1.63502 1.4963 4.96454
1 5.04915 1.66937 4.91262
1 8.46658 1.53591 5.03084
1 1.74766 5.04601 4.96265
1 4.98873 4.95024 4.89455
1 8.4635 5.10349 4.98587
1 1.54171 8.2271 4.96868
1 5.05035 8.18818 5.13929
1 8.49155 8.48473 4.98887
1 0.200287 0.0858519 6.7642
1 1.60615 1.69924 8.41841
1 3.43184 0.0376596 6.79482
1 4.90818 1.72459 8.25573
1 6.61478 -0.0556759 6.78222
1 8.38154 1.58805 8.2615
1 -0.0329262 3.34624 6.59041
1 1.74054 4.8157 8.16205
1 3.38037 3.18062 6.45995
1 4.78938 5.06294 8.32315
1 6.71541 3.50498 6.50589
1 8.08162 5.08329 8.36414
1 0.00447524 6.74149 6.62124
1 1.63809 8.16422 8.24477
1 3.32674 6.50848 6.54781
1 4.95224 8.31413 8.40143
1 6.67849 6.56748 6.51999
1 8.31594 8.3923 8.2618
54
 Atoms. Timestep: 200
1 -0.0459287 -0.0206964 0.137798
1 1.48155 1.77159 1.68285
1 3.14358 0.0629558 0.182214
1 4.98435 1.68114 1.56541
1 6.6469 -0.1217 0.0662404
1 8.38095 1.82888 1.46184
1 -0.0386654 3.38797 -0.156655
1 1.51484 4.89748 1.59802
1 3.24553 3.22446 -0.0197481
1 5.08137 5.09105 1.56977
1 6.42713 3.41632 -0.230372
1 8.26087 4.87696 1.59158
1 -0.0980627 6.515 -0.169633
1 1.59087 8.20518 1.60731
1 3.13846 6.59961 0.128111
1 4.87824 8.22618 1.91148
1 6.54336 6.83247 0.112381
1 8.30288 8.16257 1.76093
1 0.0809462 -0.123687 3.20768
1 3.19444 0.0576666 3.37271
1 6.75914 0.189522 3.28297
1 0.126758 3.459 3.4987
1 3.34489 3.20328 3.34235
1 6.65923 3.23568 3.28741
1 -0.0117814 6.58323 3.15235
1 3.33168 6.53129 3.27236
1 6.6952 6.59457 3.48838
1 1.64619 1.50526 4.97051
1 5.0645 1.65598 4.92159
1 8.46403 1.54322 5.03384
1 1.75281 5.04679 4.96092
1 4.99557 4.93711 4.88354
1 8.46738 5.09395 4.97568
1 1.55763 8.22586 4.97501
1 5.04957 8.20179 5.13283
1 8.48675 8.48182 4.99168
1 0.193442 0.0717176 6.76005
1 1.62286 1.69384 8.40757
1 3.43351 0.0343703 6.79583