 vasp.5.4.4.18Apr17-6-g9f103f2a35 (build Aug 01 2017 10:32:50) complex          
  
 executed on             LinuxIFC date 2018.05.24  20:01:08
 running on  576 total cores
 distrk:  each k-point on  576 cores,    1 groups
 distr:  one band on NCORES_PER_BAND=   1 cores,  576 groups


--------------------------------------------------------------------------------------------------------


 INCAR:
 POTCAR:    PAW In_d_GW 15Mar2013                 
 POTCAR:    PAW P_GW 19Mar2012                    

 ----------------------------------------------------------------------------- 
|                                                                             |
|           W    W    AA    RRRRR   N    N  II  N    N   GGGG   !!!           |
|           W    W   A  A   R    R  NN   N  II  NN   N  G    G  !!!           |
|           W    W  A    A  R    R  N N  N  II  N N  N  G       !!!           |
|           W WW W  AAAAAA  RRRRR   N  N N  II  N  N N  G  GGG   !            |
|           WW  WW  A    A  R   R   N   NN  II  N   NN  G    G                |
|           W    W  A    A  R    R  N    N  II  N    N   GGGG   !!!           |
|                                                                             |
|      For optimal performance we recommend to set                            |
|        NCORE= 4 - approx SQRT( number of cores)                             |
|      NCORE specifies how many cores store one orbital (NPAR=cpu/NCORE).     |
|      This setting can  greatly improve the performance of VASP for DFT.     |
|      The default,   NCORE=1            might be grossly inefficient         |
|      on modern multi-core architectures or massively parallel machines.     |
|      Do your own testing !!!!                                               |
|      Unfortunately you need to use the default for GW and RPA calculations. |
|      (for HF NCORE is supported but not extensively tested yet)             |
|                                                                             |
 ----------------------------------------------------------------------------- 

 POTCAR:    PAW In_d_GW 15Mar2013                 
   VRHFIN =In: s2p1                                                             
   LEXCH  = CA                                                                  
   EATOM  =  1579.9794 eV,  116.1252 Ry                                         
                                                                                
   TITEL  = PAW In_d_GW 15Mar2013                                               
   LULTRA =        F    use ultrasoft PP ?                                      
   IUNSCR =        1    unscreen: 0-lin 1-nonlin 2-no                           
   RPACOR =    2.200    partial core radius                                     
   POMASS =  114.820; ZVAL   =   13.000    mass and valenz                      
   RCORE  =    2.500    outmost cutoff radius                                   
   RWIGS  =    2.500; RWIGS  =    1.323    wigner-seitz radius (au A)           
   ENMAX  =  278.582; ENMIN  =  208.936 eV                                      
   RCLOC  =    1.602    cutoff for local pot                                    
   LCOR   =        T    correct aug charges                                     
   LPAW   =        T    paw PP                                                  
   EAUG   =  662.551                                                            
   DEXC   =    0.000                                                            
   RMAX   =    2.552    core radius for proj-oper                               
   RAUG   =    1.300    factor for augmentation sphere                          
   RDEP   =    2.630    radius for radial grids                                 
   RDEPT  =    2.023    core radius for aug-charge                              
                                                                                
   Atomic configuration                                                         
   12 entries                                                                   
     n  l   j            E        occ.                                          
     1  0  0.50    -27589.7837   2.0000                                         
     2  0  0.50     -4136.3979   2.0000                                         
     2  1  1.50     -3718.7207   6.0000                                         
     3  0  0.50      -784.7368   2.0000                                         
     3  1  1.50      -647.3912   6.0000                                         
     3  2  2.50      -432.7327  10.0000                                         
     4  0  0.50      -119.0564   2.0000                                         
     4  1  1.50       -77.8989   6.0000                                         
     4  2  2.50       -18.7494  10.0000                                         
     5  0  0.50        -8.4628   2.0000                                         
     5  1  0.50        -2.7047   1.0000                                         
     4  3  2.50        -2.7212   0.0000                                         
   Description                                                                  
     l       E           TYP  RCUT    TYP  RCUT                                 
     2    -18.7494033     23  2.300                                             
     2    -20.1099859     23  2.300                                             
     2     68.0291300     23  2.300                                             
     0     -8.4627526     23  1.900                                             
     0     81.6349560     23  1.900                                             
     1     -2.7046683     23  2.100                                             
     1     81.6349560     23  2.300                                             
     3     20.4087390     23  2.500                                             
     3     40.8174780     23  2.500                                             
  local pseudopotential read in
  partial core-charges read in
  partial kinetic energy density read in
  kinetic energy density of atom read in
  atomic valenz-charges read in
  non local Contribution for L=           2  read in
    real space projection operators read in
  non local Contribution for L=           2  read in
    real space projection operators read in
  non local Contribution for L=           2  read in
    real space projection operators read in
  non local Contribution for L=           0  read in
    real space projection operators read in
  non local Contribution for L=           0  read in
    real space projection operators read in
  non local Contribution for L=           1  read in
    real space projection operators read in
  non local Contribution for L=           1  read in
    real space projection operators read in
  non local Contribution for L=           3  read in
    real space projection operators read in
  non local Contribution for L=           3  read in
    real space projection operators read in
    PAW grid and wavefunctions read in
 
   number of l-projection  operators is LMAX  =           9
   number of lm-projection operators is LMMAX =          37
 
 POTCAR:    PAW P_GW 19Mar2012                    
   VRHFIN =P : s2p3                                                             
   LEXCH  = CA                                                                  
   EATOM  =   176.5121 eV,   12.9733 Ry                                         
                                                                                
   TITEL  = PAW P_GW 19Mar2012                                                  
   LULTRA =        F    use ultrasoft PP ?                                      
   IUNSCR =        1    unscreen: 0-lin 1-nonlin 2-no                           
   RPACOR =    1.400    partial core radius                                     
   POMASS =   30.974; ZVAL   =    5.000    mass and valenz                      
   RCORE  =    2.000    outmost cutoff radius                                   
   RWIGS  =    1.900; RWIGS  =    1.005    wigner-seitz radius (au A)           
   ENMAX  =  255.155; ENMIN  =  191.366 eV                                      
   ICORE  =        3    local potential                                         
   LCOR   =        T    correct aug charges                                     
   LPAW   =        T    paw PP                                                  
   EAUG   =  499.732                                                            
   DEXC   =    0.000                                                            
   RMAX   =    2.047    core radius for proj-oper                               
   RAUG   =    1.300    factor for augmentation sphere                          
   RDEP   =    2.059    radius for radial grids                                 
   RDEPT  =    1.900    core radius for aug-charge                              
                                                                                
   Atomic configuration                                                         
    7 entries                                                                   
     n  l   j            E        occ.                                          
     1  0  0.50     -2072.7761   2.0000                                         
     2  0  0.50      -172.9483   2.0000                                         
     2  1  1.50      -124.4644   6.0000                                         
     3  0  0.50       -14.0086   2.0000                                         
     3  1  0.50        -5.6037   3.0000                                         
     3  2  1.50        -6.8029   0.0000                                         
     4  3  2.50        -1.3606   0.0000                                         
   Description                                                                  
     l       E           TYP  RCUT    TYP  RCUT                                 
     0    -14.0086211     23  1.900                                             
     0    102.0436950     23  1.900                                             
     1     -5.6037292     23  1.900                                             
     1    102.0436950     23  1.900                                             
     2     -8.1634956     23  2.000                                             
     2     81.6349560     23  2.000                                             
     3     27.2116520     23  2.000                                             
  local pseudopotential read in
  partial core-charges read in
  partial kinetic energy density read in
  kinetic energy density of atom read in
  atomic valenz-charges read in
  non local Contribution for L=           0  read in
    real space projection operators read in
  non local Contribution for L=           0  read in
    real space projection operators read in
  non local Contribution for L=           1  read in
    real space projection operators read in
  non local Contribution for L=           1  read in
    real space projection operators read in
  non local Contribution for L=           2  read in
    real space projection operators read in
  non local Contribution for L=           2  read in
    real space projection operators read in
    PAW grid and wavefunctions read in
 
   number of l-projection  operators is LMAX  =           6
   number of lm-projection operators is LMMAX =          18
 

 ----------------------------------------------------------------------------- 
|                                                                             |
|  ADVICE TO THIS USER RUNNING 'VASP/VAMP'   (HEAR YOUR MASTER'S VOICE ...):  |
|                                                                             |
|      You have a (more or less) 'large supercell' and for larger cells       |
|      it might be more efficient to use real space projection opertators     |
|      So try LREAL= Auto  in the INCAR   file.                               |
|      Mind:          For very  accurate calculation you might also keep the  |
|      reciprocal projection scheme          (i.e. LREAL=.FALSE.)             |
|                                                                             |
 ----------------------------------------------------------------------------- 

  PAW In_d_GW 15Mar2013                 :
 energy of atom  1       EATOM=-1579.9794
 kinetic energy error for atom=    0.0027 (will be added to EATOM!!)
  PAW P_GW 19Mar2012                    :
 energy of atom  2       EATOM= -176.5121
 kinetic energy error for atom=    0.0005 (will be added to EATOM!!)
 
 
 POSCAR: Initial State for  iP_0_001iC2v_tdC_sc3k
  positions in direct lattice
  No initial velocities read in
 exchange correlation table for  LEXCH =        2
   RHO(1)=    0.500       N(1)  =     2000
   RHO(2)=  100.500       N(2)  =     4000
 


--------------------------------------------------------------------------------------------------------


 ion  position               nearest neighbor table
   1  0.500  0.500  0.470- 109 2.38 111 2.47 112 2.47
   2  0.670  0.670  0.496- 110 2.51 114 2.53 116 2.53 126 2.53
   3  0.671  0.501  0.670- 110 2.52 127 2.53 115 2.53 117 2.55
   4  0.501  0.671  0.670- 110 2.52 128 2.53 118 2.53 119 2.55
   5  0.670  0.501  0.327- 129 2.51 120 2.53 111 2.53 114 2.53
   6  0.665  0.335  0.501- 115 2.53 121 2.53 111 2.55 130 2.55
   7  0.501  0.670  0.327- 131 2.51 120 2.53 112 2.53 116 2.53
   8  0.499  0.329  0.670- 113 2.52 133 2.53 121 2.53 117 2.55
   9  0.335  0.665  0.501- 118 2.53 122 2.53 112 2.55 132 2.55
  10  0.329  0.499  0.670- 113 2.52 134 2.53 122 2.53 119 2.55
  11  0.499  0.330  0.327- 135 2.51 123 2.53 111 2.53 124 2.53
  12  0.330  0.499  0.327- 136 2.51 123 2.53 112 2.53 125 2.53
  13  0.330  0.330  0.496- 113 2.51 124 2.53 125 2.53 137 2.53
  14  0.834  0.500  0.499- 138 2.53 141 2.53 115 2.53 114 2.54
  15  0.500  0.834  0.499- 139 2.53 144 2.53 118 2.53 116 2.54
  16  0.500  0.500  0.832- 117 2.54 119 2.54 140 2.54 145 2.54
  17  0.500  0.500  0.164- 147 2.53 148 2.53 120 2.54 123 2.54
  18  0.500  0.166  0.499- 150 2.53 149 2.53 121 2.53 124 2.54
  19  0.166  0.500  0.499- 152 2.53 151 2.53 122 2.53 125 2.54
  20  0.833  0.667  0.666- 127 2.53 178 2.53 138 2.54 126 2.54
  21  0.667  0.833  0.666- 128 2.53 179 2.53 139 2.54 126 2.54
  22  0.667  0.667  0.834- 180 2.53 128 2.53 127 2.53 140 2.53
  23  0.834  0.667  0.332- 160 2.53 154 2.53 142 2.53 114 2.53
  24  0.667  0.834  0.332- 162 2.53 155 2.53 142 2.53 116 2.53
  25  0.833  0.333  0.666- 143 2.53 161 2.54 156 2.54 115 2.54
  26  0.666  0.334  0.834- 117 2.53 157 2.53 163 2.53 143 2.54
  27  0.333  0.833  0.666- 146 2.53 164 2.54 158 2.54 118 2.54
  28  0.334  0.666  0.834- 119 2.53 159 2.53 165 2.53 146 2.54
  29  0.833  0.333  0.333- 181 2.53 141 2.53 130 2.54 129 2.54
  30  0.668  0.668  0.164- 166 2.53 167 2.53 142 2.53 120 2.53
  31  0.667  0.167  0.666- 143 2.53 168 2.54 169 2.54 121 2.54
  32  0.333  0.833  0.333- 182 2.53 144 2.53 132 2.54 131 2.54
  33  0.333  0.333  0.834- 183 2.53 134 2.53 133 2.53 145 2.53
  34  0.167  0.667  0.666- 146 2.53 170 2.54 171 2.54 122 2.54
  35  0.667  0.333  0.165- 184 2.53 147 2.53 129 2.54 135 2.54
  36  0.667  0.167  0.333- 185 2.53 149 2.53 130 2.54 135 2.54
  37  0.333  0.667  0.165- 186 2.53 148 2.53 131 2.54 136 2.54
  38  0.167  0.667  0.333- 187 2.53 151 2.53 132 2.54 136 2.54
  39  0.333  0.167  0.666- 133 2.53 188 2.53 150 2.54 137 2.54
  40  0.167  0.333  0.666- 134 2.53 189 2.53 152 2.54 137 2.54
  41  0.332  0.332  0.164- 172 2.53 174 2.53 153 2.53 123 2.53
  42  0.333  0.166  0.332- 173 2.53 175 2.53 153 2.53 124 2.53
  43  0.166  0.333  0.332- 176 2.53 177 2.53 153 2.53 125 2.53
  44  0.835  0.835  0.499- 190 2.52 126 2.53 155 2.54 154 2.54
  45  0.836  0.500  0.835- 127 2.52 191 2.52 157 2.53 156 2.54
  46  0.500  0.836  0.835- 128 2.52 192 2.52 159 2.53 158 2.54
  47  0.835  0.500  0.165- 193 2.52 129 2.53 166 2.53 160 2.53
  48  0.833  0.167  0.499- 161 2.53 168 2.53 194 2.54 130 2.54
  49  0.500  0.835  0.165- 195 2.52 131 2.53 167 2.53 162 2.53
  50  0.500  0.164  0.835- 133 2.52 197 2.52 163 2.53 169 2.54
  51  0.167  0.833  0.499- 164 2.53 170 2.53 196 2.54 132 2.54
  52  0.164  0.500  0.835- 134 2.52 198 2.52 165 2.53 171 2.54
  53  0.500  0.165  0.165- 199 2.52 135 2.53 172 2.53 173 2.53
  54  0.165  0.500  0.165- 200 2.52 136 2.53 174 2.53 176 2.53
  55  0.165  0.165  0.499- 201 2.52 137 2.53 177 2.54 175 2.54
  56  0.000  0.667  0.499- 170 2.53 138 2.53 154 2.54 151 2.54
  57  0.000  0.500  0.666- 156 2.53 171 2.53 138 2.54 152 2.54
  58  0.667  0.000  0.499- 168 2.53 139 2.53 155 2.54 149 2.54
  59  0.500  0.000  0.666- 158 2.53 169 2.53 139 2.54 150 2.54
  60  0.667  0.500  0.999- 157 2.53 140 2.53 166 2.54 147 2.54
  61  0.500  0.667  0.999- 159 2.53 140 2.53 167 2.54 148 2.54
  62  0.000  0.500  0.332- 160 2.53 176 2.53 141 2.53 151 2.53
  63  1.000  0.333  0.499- 161 2.53 152 2.53 177 2.54 141 2.54
  64  0.500  0.000  0.332- 162 2.53 173 2.53 144 2.53 149 2.53
  65  0.333  1.000  0.499- 164 2.53 150 2.53 175 2.54 144 2.54
  66  0.500  0.333  0.999- 163 2.53 145 2.53 172 2.54 147 2.54
  67  0.333  0.500  0.999- 165 2.53 145 2.53 174 2.54 148 2.54
  68  0.834  0.834  0.832- 214 2.53 180 2.53 178 2.53 179 2.53
  69  0.834  0.834  0.166- 204 2.53 206 2.53 202 2.53 142 2.53
  70  0.833  0.167  0.832- 203 2.53 208 2.53 207 2.53 143 2.53
  71  0.167  0.833  0.832- 205 2.53 210 2.53 209 2.53 146 2.53
  72  0.833  0.167  0.166- 184 2.53 181 2.53 185 2.53 215 2.53
  73  0.167  0.833  0.166- 186 2.53 182 2.53 187 2.53 216 2.53
  74  0.166  0.166  0.832- 217 2.53 183 2.53 189 2.53 188 2.53
  75  0.166  0.166  0.166- 211 2.53 212 2.53 213 2.53 153 2.53
  76  0.000  0.833  0.666- 209 2.53 178 2.53 190 2.53 170 2.54
  77  0.000  0.667  0.832- 178 2.53 210 2.53 171 2.53 191 2.53
  78  0.833  0.000  0.666- 207 2.53 179 2.53 190 2.53 168 2.54
  79  0.834  0.667  0.999- 180 2.53 191 2.53 204 2.53 166 2.53
  80  0.667  0.000  0.832- 179 2.53 208 2.53 169 2.53 192 2.53
  81  0.667  0.834  0.999- 180 2.53 192 2.53 206 2.53 167 2.53
  82  0.000  0.834  0.333- 187 2.53 196 2.53 154 2.53 202 2.53
  83  0.834  0.000  0.333- 185 2.53 194 2.53 155 2.53 202 2.53
  84  1.000  0.333  0.832- 189 2.53 203 2.53 156 2.53 198 2.53
  85  0.834  0.333  0.999- 157 2.53 184 2.53 193 2.53 203 2.53
  86  0.000  0.667  0.166- 200 2.53 160 2.53 187 2.53 204 2.53
  87  0.333  1.000  0.832- 188 2.53 205 2.53 158 2.53 197 2.53
  88  0.333  0.834  0.999- 159 2.53 186 2.53 195 2.53 205 2.53
  89  0.667  0.000  0.166- 199 2.53 162 2.53 185 2.53 206 2.53
  90  1.000  0.167  0.666- 207 2.53 189 2.53 201 2.53 161 2.54
  91  0.667  0.166  0.999- 163 2.53 184 2.53 199 2.53 208 2.53
  92  1.000  0.333  0.166- 193 2.53 176 2.53 181 2.53 212 2.53
  93  0.167  1.000  0.666- 209 2.53 188 2.53 201 2.53 164 2.54
  94  1.000  0.166  0.333- 181 2.53 194 2.53 177 2.53 213 2.53
  95  0.166  0.667  0.999- 165 2.53 186 2.53 200 2.53 210 2.53
  96  0.333  1.000  0.166- 195 2.53 173 2.53 182 2.53 211 2.53
  97  0.166  1.000  0.333- 182 2.53 196 2.53 175 2.53 213 2.53
  98  0.333  0.166  0.999- 183 2.53 197 2.53 211 2.53 172 2.53
  99  0.166  0.333  0.999- 183 2.53 198 2.53 212 2.53 174 2.53
 100  0.000  0.000  0.499- 190 2.53 201 2.53 196 2.54 194 2.54
 101  0.000  0.500  0.000- 191 2.52 198 2.52 193 2.53 200 2.53
 102  0.500  0.000  0.000- 192 2.52 197 2.52 195 2.53 199 2.53
 103  0.000  0.000  0.832- 214 2.53 217 2.53 207 2.53 209 2.53
 104  0.000  0.834  0.999- 210 2.53 214 2.53 216 2.53 204 2.53
 105  0.834  0.000  0.999- 208 2.53 214 2.53 215 2.53 206 2.53
 106  0.000  0.000  0.166- 202 2.53 213 2.53 215 2.53 216 2.53
 107  1.000  0.166  0.999- 203 2.53 217 2.53 215 2.53 212 2.53
 108  0.166  1.000  0.999- 205 2.53 217 2.53 216 2.53 211 2.53
 109  0.500  0.500  0.606-   1 2.38 110 2.39 113 2.39
 110  0.596  0.596  0.593- 109 2.39   2 2.51   4 2.52   3 2.52
 111  0.588  0.412  0.405-   1 2.47   5 2.53  11 2.53   6 2.55
 112  0.412  0.588  0.405-   1 2.47   7 2.53  12 2.53   9 2.55
 113  0.404  0.404  0.593- 109 2.39  13 2.51   8 2.52  10 2.52
 114  0.751  0.583  0.414-   2 2.53  23 2.53   5 2.53  14 2.54
 115  0.750  0.418  0.583-   6 2.53   3 2.53  14 2.53  25 2.54
 116  0.583  0.751  0.414-   2 2.53  24 2.53   7 2.53  15 2.54
 117  0.584  0.416  0.750-  26 2.53  16 2.54   3 2.55   8 2.55
 118  0.418  0.750  0.583-   9 2.53   4 2.53  15 2.53  27 2.54
 119  0.416  0.584  0.750-  28 2.53  16 2.54   4 2.55  10 2.55
 120  0.584  0.584  0.246-   5 2.53   7 2.53  30 2.53  17 2.54
 121  0.582  0.250  0.583-   6 2.53   8 2.53  18 2.53  31 2.54
 122  0.250  0.582  0.583-   9 2.53  10 2.53  19 2.53  34 2.54
 123  0.416  0.416  0.246-  11 2.53  12 2.53  41 2.53  17 2.54
 124  0.417  0.249  0.414-  13 2.53  42 2.53  11 2.53  18 2.54
 125  0.249  0.417  0.414-  13 2.53  43 2.53  12 2.53  19 2.54
 126  0.752  0.752  0.583-  44 2.53   2 2.53  21 2.54  20 2.54
 127  0.753  0.584  0.753-  45 2.52   3 2.53  20 2.53  22 2.53
 128  0.584  0.753  0.753-  46 2.52   4 2.53  21 2.53  22 2.53
 129  0.752  0.416  0.247-   5 2.51  47 2.53  35 2.54  29 2.54
 130  0.749  0.251  0.417-  29 2.54  36 2.54  48 2.54   6 2.55
 131  0.416  0.752  0.247-   7 2.51  49 2.53  37 2.54  32 2.54
 132  0.251  0.749  0.417-  32 2.54  38 2.54  51 2.54   9 2.55
 133  0.416  0.247  0.753-  50 2.52   8 2.53  39 2.53  33 2.53
 134  0.247  0.416  0.753-  52 2.52  10 2.53  40 2.53  33 2.53
 135  0.584  0.248  0.247-  11 2.51  53 2.53  35 2.54  36 2.54
 136  0.248  0.584  0.247-  12 2.51  54 2.53  37 2.54  38 2.54
 137  0.248  0.248  0.583-  55 2.53  13 2.53  40 2.54  39 2.54
 138  0.917  0.583  0.583-  14 2.53  56 2.53  20 2.54  57 2.54
 139  0.583  0.917  0.583-  15 2.53  58 2.53  21 2.54  59 2.54
 140  0.583  0.583  0.916-  60 2.53  61 2.53  22 2.53  16 2.54
 141  0.917  0.417  0.416-  14 2.53  29 2.53  62 2.53  63 2.54
 142  0.750  0.750  0.249-  69 2.53  24 2.53  23 2.53  30 2.53
 143  0.750  0.250  0.750-  70 2.53  31 2.53  25 2.53  26 2.54
 144  0.417  0.917  0.416-  15 2.53  32 2.53  64 2.53  65 2.54
 145  0.417  0.417  0.916-  66 2.53  67 2.53  33 2.53  16 2.54
 146  0.250  0.750  0.750-  71 2.53  34 2.53  27 2.53  28 2.54
 147  0.584  0.416  0.082-  17 2.53  35 2.53  60 2.54  66 2.54
 148  0.416  0.584  0.082-  17 2.53  37 2.53  61 2.54  67 2.54
 149  0.583  0.083  0.416-  18 2.53  36 2.53  64 2.53  58 2.54
 150  0.417  0.083  0.583-  18 2.53  65 2.53  39 2.54  59 2.54
 151  0.083  0.583  0.416-  19 2.53  38 2.53  62 2.53  56 2.54
 152  0.083  0.417  0.583-  19 2.53  63 2.53  40 2.54  57 2.54
 153  0.250  0.250  0.249-  75 2.53  43 2.53  42 2.53  41 2.53
 154  0.917  0.750  0.416-  82 2.53  23 2.53  56 2.54  44 2.54
 155  0.750  0.917  0.416-  83 2.53  24 2.53  58 2.54  44 2.54
 156  0.917  0.417  0.749-  84 2.53  57 2.53  45 2.54  25 2.54
 157  0.751  0.416  0.917-  85 2.53  60 2.53  45 2.53  26 2.53
 158  0.417  0.917  0.749-  87 2.53  59 2.53  46 2.54  27 2.54
 159  0.416  0.751  0.917-  88 2.53  61 2.53  46 2.53  28 2.53
 160  0.917  0.583  0.249-  23 2.53  86 2.53  62 2.53  47 2.53
 161  0.916  0.250  0.583-  63 2.53  48 2.53  90 2.54  25 2.54
 162  0.583  0.917  0.249-  24 2.53  89 2.53  64 2.53  49 2.53
 163  0.584  0.249  0.917-  91 2.53  66 2.53  50 2.53  26 2.53
 164  0.250  0.916  0.583-  65 2.53  51 2.53  93 2.54  27 2.54
 165  0.249  0.584  0.917-  95 2.53  67 2.53  52 2.53  28 2.53
 166  0.751  0.584  0.082-  30 2.53  79 2.53  47 2.53  60 2.54
 167  0.584  0.751  0.082-  30 2.53  81 2.53  49 2.53  61 2.54
 168  0.750  0.084  0.583-  58 2.53  48 2.53  78 2.54  31 2.54
 169  0.583  0.083  0.749-  80 2.53  59 2.53  50 2.54  31 2.54
 170  0.084  0.750  0.583-  56 2.53  51 2.53  76 2.54  34 2.54
 171  0.083  0.583  0.749-  77 2.53  57 2.53  52 2.54  34 2.54
 172  0.416  0.249  0.082-  41 2.53  98 2.53  53 2.53  66 2.54
 173  0.417  0.083  0.249-  42 2.53  96 2.53  64 2.53  53 2.53
 174  0.249  0.416  0.082-  41 2.53  99 2.53  54 2.53  67 2.54
 175  0.250  0.083  0.416-  97 2.53  42 2.53  65 2.54  55 2.54
 176  0.083  0.417  0.249-  43 2.53  92 2.53  62 2.53  54 2.53
 177  0.083  0.250  0.416-  94 2.53  43 2.53  63 2.54  55 2.54
 178  0.917  0.750  0.749-  76 2.53  77 2.53  68 2.53  20 2.53
 179  0.750  0.917  0.749-  78 2.53  80 2.53  68 2.53  21 2.53
 180  0.751  0.751  0.917-  79 2.53  81 2.53  22 2.53  68 2.53
 181  0.916  0.250  0.250-  94 2.53  72 2.53  92 2.53  29 2.53
 182  0.250  0.916  0.250-  97 2.53  73 2.53  96 2.53  32 2.53
 183  0.249  0.249  0.917-  98 2.53  99 2.53  33 2.53  74 2.53
 184  0.751  0.249  0.082-  35 2.53  72 2.53  85 2.53  91 2.53
 185  0.750  0.084  0.250-  83 2.53  72 2.53  89 2.53  36 2.53
 186  0.249  0.751  0.082-  37 2.53  73 2.53  88 2.53  95 2.53
 187  0.084  0.750  0.250-  82 2.53  73 2.53  86 2.53  38 2.53
 188  0.250  0.083  0.749-  93 2.53  87 2.53  74 2.53  39 2.53
 189  0.083  0.250  0.749-  90 2.53  84 2.53  74 2.53  40 2.53
 190  0.917  0.917  0.583-  44 2.52 100 2.53  78 2.53  76 2.53
 191  0.918  0.584  0.917-  45 2.52 101 2.52  79 2.53  77 2.53
 192  0.584  0.918  0.917-  46 2.52 102 2.52  81 2.53  80 2.53
 193  0.917  0.416  0.082-  47 2.52 101 2.53  92 2.53  85 2.53
 194  0.916  0.084  0.416-  83 2.53  94 2.53 100 2.54  48 2.54
 195  0.416  0.917  0.082-  49 2.52 102 2.53  96 2.53  88 2.53
 196  0.084  0.916  0.416-  82 2.53  97 2.53 100 2.54  51 2.54
 197  0.416  0.082  0.917-  50 2.52 102 2.52  98 2.53  87 2.53
 198  0.082  0.416  0.917-  52 2.52 101 2.52  99 2.53  84 2.53
 199  0.584  0.083  0.082-  53 2.52 102 2.53  89 2.53  91 2.53
 200  0.083  0.584  0.082-  54 2.52 101 2.53  86 2.53  95 2.53
 201  0.083  0.083  0.583-  55 2.52 100 2.53  93 2.53  90 2.53
 202  0.917  0.917  0.250-  69 2.53 106 2.53  83 2.53  82 2.53
 203  0.917  0.250  0.916-  85 2.53  70 2.53  84 2.53 107 2.53
 204  0.917  0.750  0.083-  69 2.53  79 2.53  86 2.53 104 2.53
 205  0.250  0.917  0.916-  88 2.53  71 2.53  87 2.53 108 2.53
 206  0.750  0.917  0.083-  69 2.53  81 2.53  89 2.53 105 2.53
 207  0.917  0.083  0.749-  90 2.53  78 2.53  70 2.53 103 2.53
 208  0.750  0.083  0.916-  91 2.53  70 2.53  80 2.53 105 2.53
 209  0.083  0.917  0.749-  76 2.53  93 2.53  71 2.53 103 2.53
 210  0.083  0.750  0.916-  95 2.53  71 2.53  77 2.53 104 2.53
 211  0.250  0.083  0.083-  75 2.53  98 2.53  96 2.53 108 2.53
 212  0.083  0.250  0.083-  75 2.53  99 2.53  92 2.53 107 2.53
 213  0.083  0.083  0.250-  75 2.53 106 2.53  97 2.53  94 2.53
 214  0.917  0.917  0.916- 103 2.53  68 2.53 104 2.53 105 2.53
 215  0.917  0.083  0.083- 105 2.53 107 2.53 106 2.53  72 2.53
 216  0.083  0.917  0.083- 104 2.53 108 2.53 106 2.53  73 2.53
 217  0.083  0.083  0.916- 103 2.53  74 2.53 107 2.53 108 2.53
 
  LATTYP: Found a simple cubic cell.
 ALAT       =    17.5612749176
  
  Lattice vectors:
  
 A1 = (  17.5612749176,   0.0000000000,   0.0000000000)
 A2 = (   0.0000000000,  17.5612749176,   0.0000000000)
 A3 = (   0.0000000000,   0.0000000000,  17.5612749176)


Analysis of symmetry for initial positions (statically):
=====================================================================
 Subroutine PRICEL returns:
 Original cell was already a primitive cell.
 

 Routine SETGRP: Setting up the symmetry group for a 
 simple cubic supercell.


 Subroutine GETGRP returns: Found  4 space group operations
 (whereof  4 operations were pure point group operations)
 out of a pool of 48 trial point group operations.


The static configuration has the point symmetry C_2v.


Analysis of symmetry for dynamics (positions and initial velocities):
=====================================================================
 Subroutine PRICEL returns:
 Original cell was already a primitive cell.
 

 Routine SETGRP: Setting up the symmetry group for a 
 simple cubic supercell.


 Subroutine GETGRP returns: Found  4 space group operations
 (whereof  4 operations were pure point group operations)
 out of a pool of 48 trial point group operations.


The dynamic configuration has the point symmetry C_2v.


 Subroutine INISYM returns: Found  4 space group operations
 (whereof  4 operations are pure point group operations),
 and found     1 'primitive' translations

 
 
 KPOINTS: K-Points                                

Automatic generation of k-mesh.
Space group operators:
 irot       det(A)        alpha          n_x          n_y          n_z        tau_x        tau_y        tau_z
    1     1.000000     0.000000     1.000000     0.000000     0.000000     0.000000     0.000000     0.000000
    2     1.000000   180.000000     0.000000     0.000000     1.000000     0.000000     0.000000     0.000000
    3    -1.000000   180.000000     0.707107     0.707107     0.000000     0.000000     0.000000     0.000000
    4    -1.000000   180.000000     0.707107    -0.707107     0.000000     0.000000     0.000000     0.000000
 
 Subroutine IBZKPT returns following result:
 ===========================================
 
 Found      8 irreducible k-points:
 
 Following reciprocal coordinates:
            Coordinates               Weight
  0.000000  0.000000  0.000000      1.000000
  0.333333  0.000000  0.000000      4.000000
  0.333333  0.333333  0.000000      2.000000
 -0.333333  0.333333  0.000000      2.000000
  0.000000  0.000000  0.333333      2.000000
  0.333333  0.000000  0.333333      8.000000
  0.333333  0.333333  0.333333      4.000000
 -0.333333  0.333333  0.333333      4.000000
 
 Following cartesian coordinates:
            Coordinates               Weight
  0.000000  0.000000  0.000000      1.000000
  0.018981  0.000000  0.000000      4.000000
  0.018981  0.018981  0.000000      2.000000
 -0.018981  0.018981  0.000000      2.000000
  0.000000  0.000000  0.018981      2.000000
  0.018981  0.000000  0.018981      8.000000
  0.018981  0.018981  0.018981      4.000000
 -0.018981  0.018981  0.018981      4.000000
 


--------------------------------------------------------------------------------------------------------




 Dimension of arrays:
   k-points           NKPTS =      8   k-points in BZ     NKDIM =      8   number of bands    NBANDS=   1728
   number of dos      NEDOS =    301   number of ions     NIONS =    217
   non local maximal  LDIM  =      9   non local SUM 2l+1 LMDIM =     37
   total plane-waves  NPLWV = ******
   max r-space proj   IRMAX =      1   max aug-charges    IRDMAX=   7705
   dimension x,y,z NGX =   150 NGY =  150 NGZ =  150
   dimension x,y,z NGXF=   196 NGYF=  196 NGZF=  196
   support grid    NGXF=   196 NGYF=  196 NGZF=  196
   ions per type =             108 109
   NGX,Y,Z   is equivalent  to a cutoff of  14.20, 14.20, 14.20 a.u.
   NGXF,Y,Z  is equivalent  to a cutoff of  18.55, 18.55, 18.55 a.u.

 SYSTEM =  unknown system                          
 POSCAR =  Initial State for  iP_0_001iC2v_tdC_sc3k

 Startparameter for this run:
   NWRITE =      2    write-flag & timer
   PREC   = high      normal or accurate (medium, high low for compatibility)
   ISTART =      0    job   : 0-new  1-cont  2-samecut
   ICHARG =      2    charge: 1-file 2-atom 10-const
   ISPIN  =      1    spin polarized calculation?
   LNONCOLLINEAR =      F non collinear calculations
   LSORBIT =      F    spin-orbit coupling
   INIWAV =      1    electr: 0-lowe 1-rand  2-diag
   LASPH  =      F    aspherical Exc in radial PAW
   METAGGA=      F    non-selfconsistent MetaGGA calc.

 Electronic Relaxation 1
   ENCUT  =  650.0 eV  47.77 Ry    6.91 a.u.  36.51 36.51 36.51*2*pi/ulx,y,z
   ENINI  =  650.0     initial cutoff
   ENAUG  =  662.6 eV  augmentation charge cutoff
   NELM   =     60;   NELMIN=  2; NELMDL= -5     # of ELM steps 
   EDIFF  = 0.1E-05   stopping-criterion for ELM
   LREAL  =      F    real-space projection
   NLSPLINE    = F    spline interpolate recip. space projectors
   LCOMPAT=      F    compatible to vasp.4.4
   GGA_COMPAT  = T    GGA compatible to vasp.4.4-vasp.4.6
   LMAXPAW     = -100 max onsite density
   LMAXMIX     =    2 max onsite mixed and CHGCAR
   VOSKOWN=      0    Vosko Wilk Nusair interpolation
   ROPT   =    0.00000   0.00000
 Ionic relaxation
   EDIFFG = 0.1E-03   stopping-criterion for IOM
   NSW    =    100    number of steps for IOM
   NBLOCK =      1;   KBLOCK =      1    inner block; outer block 
   IBRION =      2    ionic relax: 0-MD 1-quasi-New 2-CG
   NFREE  =      0    steps in history (QN), initial steepest desc. (CG)
   ISIF   =      2    stress and relaxation
   IWAVPR =     11    prediction:  0-non 1-charg 2-wave 3-comb
   ISYM   =      2    0-nonsym 1-usesym 2-fastsym
   LCORR  =      T    Harris-Foulkes like correction to forces

   POTIM  = 0.5000    time-step for ionic-motion
   TEIN   =    0.0    initial temperature
   TEBEG  = 3500.0;   TEEND  =3500.0 temperature during run
   SMASS  =  -3.00    Nose mass-parameter (am)
   estimated Nose-frequenzy (Omega)   =  0.10E-29 period in steps =****** mass=  -0.705E-26a.u.
   SCALEE = 1.0000    scale energy and forces
   NPACO  =    256;   APACO  = 16.0  distance and # of slots for P.C.
   PSTRESS=   -7.8 pullay stress

  Mass of Ions in am
   POMASS = 114.82 30.97
  Ionic Valenz
   ZVAL   =  13.00  5.00
  Atomic Wigner-Seitz radii
   RWIGS  =  -1.00 -1.00
  virtual crystal weights 
   VCA    =   1.00  1.00
   NELECT =    1949.0000    total number of electrons
   NUPDOWN=      -1.0000    fix difference up-down

 DOS related values:
   EMIN   =  10.00;   EMAX   =-10.00  energy-range for DOS
   EFERMI =   0.00
   ISMEAR =     0;   SIGMA  =   0.10  broadening in eV -4-tet -1-fermi 0-gaus

 Electronic relaxation 2 (details)
   IALGO  =     38    algorithm
   LDIAG  =      T    sub-space diagonalisation (order eigenvalues)
   LSUBROT=      F    optimize rotation matrix (better conditioning)
   TURBO    =      0    0=normal 1=particle mesh
   IRESTART =      0    0=no restart 2=restart with 2 vectors
   NREBOOT  =      0    no. of reboots
   NMIN     =      0    reboot dimension
   EREF     =   0.00    reference energy to select bands
   IMIX   =      4    mixing-type and parameters
     AMIX     =   0.40;   BMIX     =  1.00
     AMIX_MAG =   1.60;   BMIX_MAG =  1.00
     AMIN     =   0.10
     WC   =   100.;   INIMIX=   1;  MIXPRE=   1;  MAXMIX= -45

 Intra band minimization:
   WEIMIN = 0.0010     energy-eigenvalue tresh-hold
   EBREAK =  0.14E-09  absolut break condition
   DEPER  =   0.30     relativ break condition  

   TIME   =   0.40     timestep for ELM

  volume/ion in A,a.u.               =      24.96       168.42
  Fermi-wavevector in a.u.,A,eV,Ry     =   1.164455  2.200501 18.448896  1.355956
  Thomas-Fermi vector in A             =   2.300993
 
 Write flags
   LWAVE        =      T    write WAVECAR
   LDOWNSAMPLE  =      F    k-point downsampling of WAVECAR
   LCHARG       =      T    write CHGCAR
   LVTOT        =      F    write LOCPOT, total local potential
   LVHAR        =      F    write LOCPOT, Hartree potential only
   LELF         =      F    write electronic localiz. function (ELF)
   LORBIT       =      0    0 simple, 1 ext, 2 COOP (PROOUT), +10 PAW based schemes


 Dipole corrections
   LMONO  =      F    monopole corrections only (constant potential shift)
   LDIPOL =      F    correct potential (dipole corrections)
   IDIPOL =      0    1-x, 2-y, 3-z, 4-all directions 
   EPSILON=  1.0000000 bulk dielectric constant

 Exchange correlation treatment:
   GGA     =    --    GGA type
   LEXCH   =     2    internal setting for exchange type
   VOSKOWN=      0    Vosko Wilk Nusair interpolation
   LHFCALC =     F    Hartree Fock is set to
   LHFONE  =     F    Hartree Fock one center treatment
   AEXX    =    0.0000 exact exchange contribution

 Linear response parameters
   LEPSILON=     F    determine dielectric tensor
   LRPA    =     F    only Hartree local field effects (RPA)
   LNABLA  =     F    use nabla operator in PAW spheres
   LVEL    =     F    velocity operator in full k-point grid
   LINTERFAST=   F  fast interpolation
   KINTER  =     0    interpolate to denser k-point grid
   CSHIFT  =0.1000    complex shift for real part using Kramers Kronig
   OMEGAMAX=  -1.0    maximum frequency
   DEG_THRESHOLD= 0.2000000E-02 threshold for treating states as degnerate
   RTIME   =   -0.100 relaxation time in fs
  (WPLASMAI=    0.000 imaginary part of plasma frequency in eV, 0.658/RTIME)
   DFIELD  = 0.0000000 0.0000000 0.0000000 field for delta impulse in time
 
 Orbital magnetization related:
   ORBITALMAG=     F  switch on orbital magnetization
   LCHIMAG   =     F  perturbation theory with respect to B field
   DQ        =  0.001000  dq finite difference perturbation B field
   LLRAUG    =     F  two centre corrections for induced B field



--------------------------------------------------------------------------------------------------------


 conjugate gradient relaxation of ions
 charge density and potential will be updated during run
 non-spin polarized calculation
 Variant of blocked Davidson
 Davidson routine will perform the subspace rotation
 perform sub-space diagonalisation
    after iterative eigenvector-optimisation
 modified Broyden-mixing scheme, WC =      100.0
 initial mixing is a Kerker type mixing with AMIX =  0.4000 and BMIX =      1.0000
 Hartree-type preconditioning will be used
 using additional bands          753
 reciprocal scheme for non local part
 use partial core corrections
 calculate Harris-corrections to forces 
   (improved forces if not selfconsistent)
 use of overlap-Matrix (Vanderbilt PP)
 Gauss-broadening in eV      SIGMA  =   0.10


--------------------------------------------------------------------------------------------------------


  energy-cutoff  :      650.00
  volume of cell :     5415.87
      direct lattice vectors                 reciprocal lattice vectors
    17.561274918  0.000000000  0.000000000     0.056943474  0.000000000  0.000000000
     0.000000000 17.561274918  0.000000000     0.000000000  0.056943474  0.000000000
     0.000000000  0.000000000 17.561274918     0.000000000  0.000000000  0.056943474

  length of vectors
    17.561274918 17.561274918 17.561274918     0.056943474  0.056943474  0.056943474


 
 k-points in units of 2pi/SCALE and weight: K-Points                                
   0.00000000  0.00000000  0.00000000       0.037
   0.01898116  0.00000000  0.00000000       0.148
   0.01898116  0.01898116  0.00000000       0.074
  -0.01898116  0.01898116  0.00000000       0.074
   0.00000000  0.00000000  0.01898116       0.074
   0.01898116  0.00000000  0.01898116       0.296
   0.01898116  0.01898116  0.01898116       0.148
  -0.01898116  0.01898116  0.01898116       0.148
 
 k-points in reciprocal lattice and weights: K-Points                                
   0.00000000  0.00000000  0.00000000       0.037
   0.33333333  0.00000000  0.00000000       0.148
   0.33333333  0.33333333  0.00000000       0.074
  -0.33333333  0.33333333  0.00000000       0.074
   0.00000000  0.00000000  0.33333333       0.074
   0.33333333  0.00000000  0.33333333       0.296
   0.33333333  0.33333333  0.33333333       0.148
  -0.33333333  0.33333333  0.33333333       0.148
 
 position of ions in fractional coordinates (direct lattice) 
   0.50000000  0.50000000  0.47016970
   0.67017367  0.67017367  0.49600968
   0.67102588  0.50090960  0.66989883
   0.50090960  0.67102588  0.66989883
   0.67016346  0.50133167  0.32690044
   0.66483880  0.33516120  0.50101624
   0.50133167  0.67016346  0.32690044
   0.49909040  0.32897412  0.66989883
   0.33516120  0.66483880  0.50101624
   0.32897412  0.49909040  0.66989883
   0.49866833  0.32983654  0.32690044
   0.32983654  0.49866833  0.32690044
   0.32982633  0.32982633  0.49600968
   0.83355537  0.50032829  0.49895353
   0.50032829  0.83355537  0.49895353
   0.50000000  0.50000000  0.83210537
   0.50000000  0.50000000  0.16408883
   0.49967171  0.16644463  0.49895353
   0.16644463  0.49967171  0.49895353
   0.83343658  0.66684457  0.66627766
   0.66684457  0.83343658  0.66627766
   0.66743233  0.66743233  0.83399522
   0.83426640  0.66726962  0.33177737
   0.66726962  0.83426640  0.33177737
   0.83284778  0.33341864  0.66599886
   0.66629146  0.33370854  0.83377086
   0.33341864  0.83284778  0.66599886
   0.33370854  0.66629146  0.83377086
   0.83316636  0.33309255  0.33313788
   0.66776982  0.66776982  0.16422758
   0.66658136  0.16715222  0.66599886
   0.33309255  0.83316636  0.33313788
   0.33256767  0.33256767  0.83399522
   0.16715222  0.66658136  0.66599886
   0.66696499  0.33303501  0.16470994
   0.66690745  0.16683364  0.33313788
   0.33303501  0.66696499  0.16470994
   0.16683364  0.66690745  0.33313788
   0.33315543  0.16656342  0.66627766
   0.16656342  0.33315543  0.66627766
   0.33223018  0.33223018  0.16422758
   0.33273038  0.16573360  0.33177737
   0.16573360  0.33273038  0.33177737
   0.83462005  0.83462005  0.49942115
   0.83555800  0.49997668  0.83497373
   0.49997668  0.83555800  0.83497373
   0.83472659  0.50036892  0.16453770
   0.83269727  0.16730273  0.49917101
   0.50036892  0.83472659  0.16453770
   0.50002332  0.16444200  0.83497373
   0.16730273  0.83269727  0.49917101
   0.16444200  0.50002332  0.83497373
   0.49963108  0.16527341  0.16453770
   0.16527341  0.49963108  0.16453770
   0.16537995  0.16537995  0.49942115
   0.00006217  0.66669859  0.49934205
   0.00000000  0.50000000  0.66593913
   0.66669859  0.00006217  0.49934205
   0.50000000  0.00000000  0.66593913
   0.66712910  0.50017516  0.99876214
   0.50017516  0.66712910  0.99876214
   0.00000000  0.50000000  0.33239077
   0.99993783  0.33330141  0.49934205
   0.50000000  0.00000000  0.33239077
   0.33330141  0.99993783  0.49934205
   0.49982484  0.33287090  0.99876214
   0.33287090  0.49982484  0.99876214
   0.83370760  0.83370760  0.83243083
   0.83392113  0.83392113  0.16591332
   0.83318773  0.16681227  0.83230541
   0.16681227  0.83318773  0.83230541
   0.83348130  0.16651870  0.16619001
   0.16651870  0.83348130  0.16619001
   0.16629240  0.16629240  0.83243083
   0.16607887  0.16607887  0.16591332
   0.00041539  0.83340477  0.66583399
   0.00026313  0.66706548  0.83220490
   0.83340477  0.00041539  0.66583399
   0.83427455  0.66736109  0.99932566
   0.66706548  0.00026313  0.83220490
   0.66736109  0.83427455  0.99932566
   0.00026496  0.83354206  0.33277877
   0.83354206  0.00026496  0.33277877
   0.99973687  0.33293452  0.83220490
   0.83374381  0.33286759  0.99931678
   0.00048349  0.66715029  0.16619318
   0.33293452  0.99973687  0.83220490
   0.33286759  0.83374381  0.99931678
   0.66715029  0.00048349  0.16619318
   0.99958461  0.16659523  0.66583399
   0.66713241  0.16625619  0.99931678
   0.99951651  0.33284971  0.16619318
   0.16659523  0.99958461  0.66583399
   0.99973504  0.16645794  0.33277877
   0.16625619  0.66713241  0.99931678
   0.33284971  0.99951651  0.16619318
   0.16645794  0.99973504  0.33277877
   0.33263891  0.16572545  0.99932566
   0.16572545  0.33263891  0.99932566
   0.00000000  0.00000000  0.49912491
   0.00000000  0.50000000  0.00008981
   0.50000000  0.00000000  0.00008981
   0.00000000  0.00000000  0.83240631
   0.00021705  0.83357113  0.99912639
   0.83357113  0.00021705  0.99912639
   0.00000000  0.00000000  0.16597784
   0.99978295  0.16642887  0.99912639
   0.16642887  0.99978295  0.99912639
   0.50000000  0.50000000  0.60550497
   0.59571076  0.59571076  0.59281359
   0.58799727  0.41200273  0.40481898
   0.41200273  0.58799727  0.40481898
   0.40428924  0.40428924  0.59281359
   0.75081594  0.58320240  0.41420107
   0.74992348  0.41770841  0.58265032
   0.58320240  0.75081594  0.41420107
   0.58384918  0.41615082  0.74952657
   0.41770841  0.74992348  0.58265032
   0.41615082  0.58384918  0.74952657
   0.58393232  0.58393232  0.24649546
   0.58229159  0.25007652  0.58265032
   0.25007652  0.58229159  0.58265032
   0.41606768  0.41606768  0.24649546
   0.41679760  0.24918406  0.41420107
   0.24918406  0.41679760  0.41420107
   0.75167004  0.75167004  0.58259580
   0.75336931  0.58437812  0.75330295
   0.58437812  0.75336931  0.75330295
   0.75228565  0.41581543  0.24668162
   0.74865715  0.25134285  0.41697269
   0.41581543  0.75228565  0.24668162
   0.25134285  0.74865715  0.41697269
   0.41562188  0.24663069  0.75330295
   0.24663069  0.41562188  0.75330295
   0.58418457  0.24771435  0.24668162
   0.24771435  0.58418457  0.24668162
   0.24832996  0.24832996  0.58259580
   0.91657022  0.58348479  0.58262255
   0.58348479  0.91657022  0.58262255
   0.58335863  0.58335863  0.91580946
   0.91673178  0.41673477  0.41585391
   0.75043245  0.75043245  0.24883525
   0.74958131  0.25041869  0.74967007
   0.41673477  0.91673178  0.41585391
   0.41664137  0.41664137  0.91580946
   0.25041869  0.74958131  0.74967007
   0.58358594  0.41641406  0.08171886
   0.41641406  0.58358594  0.08171886
   0.58326523  0.08326822  0.41585391
   0.41651521  0.08342978  0.58262255
   0.08326822  0.58326523  0.41585391
   0.08342978  0.41651521  0.58262255
   0.24956755  0.24956755  0.24883525
   0.91694020  0.75027432  0.41597285
   0.75027432  0.91694020  0.41597285
   0.91662141  0.41667613  0.74923629
   0.75082822  0.41638064  0.91653972
   0.41667613  0.91662141  0.74923629
   0.41638064  0.75082822  0.91653972
   0.91717057  0.58349027  0.24884841
   0.91634841  0.25021447  0.58261863
   0.58349027  0.91717057  0.24884841
   0.58361936  0.24917178  0.91653972
   0.25021447  0.91634841  0.58261863
   0.24917178  0.58361936  0.91653972
   0.75075852  0.58357687  0.08185387
   0.58357687  0.75075852  0.08185387
   0.74978553  0.08365159  0.58261863
   0.58332387  0.08337859  0.74923629
   0.08365159  0.74978553  0.58261863
   0.08337859  0.58332387  0.74923629
   0.41642313  0.24924148  0.08185387
   0.41650973  0.08282943  0.24884841
   0.24924148  0.41642313  0.08185387
   0.24972568  0.08305980  0.41597285
   0.08282943  0.41650973  0.24884841
   0.08305980  0.24972568  0.41597285
   0.91695487  0.75042864  0.74908216
   0.75042864  0.91695487  0.74908216
   0.75090763  0.75090763  0.91666400
   0.91637956  0.24977872  0.24976215
   0.24977872  0.91637956  0.24976215
   0.24909237  0.24909237  0.91666400
   0.75056400  0.24943600  0.08237283
   0.75022128  0.08362044  0.24976215
   0.24943600  0.75056400  0.08237283
   0.08362044  0.75022128  0.24976215
   0.24957136  0.08304513  0.74908216
   0.08304513  0.24957136  0.74908216
   0.91736167  0.91736167  0.58294876
   0.91825769  0.58404268  0.91700748
   0.58404268  0.91825769  0.91700748
   0.91711148  0.41612572  0.08238755
   0.91639024  0.08360976  0.41631998
   0.41612572  0.91711148  0.08238755
   0.08360976  0.91639024  0.41631998
   0.41595732  0.08174231  0.91700748
   0.08174231  0.41595732  0.91700748
   0.58387428  0.08288852  0.08238755
   0.08288852  0.58387428  0.08238755
   0.08263833  0.08263833  0.58294876
   0.91692315  0.91692315  0.24964292
   0.91666842  0.24970047  0.91570094
   0.91726811  0.75049436  0.08295890
   0.24970047  0.91666842  0.91570094
   0.75049436  0.91726811  0.08295890
   0.91659047  0.08340953  0.74929754
   0.75029953  0.08333158  0.91570094
   0.08340953  0.91659047  0.74929754
   0.08333158  0.75029953  0.91570094
   0.24950564  0.08273189  0.08295890
   0.08273189  0.24950564  0.08295890
   0.08307685  0.08307685  0.24964292
   0.91686692  0.91686692  0.91593824
   0.91669305  0.08330695  0.08274916
   0.08330695  0.91669305  0.08274916
   0.08313308  0.08313308  0.91593824
 
 position of ions in cartesian coordinates  (Angst):
   8.78063746  8.78063746  8.25677929
  11.76910399 11.76910399  8.71056230
  11.78406995  8.79661123 11.76427759
   8.79661123 11.78406995 11.76427759
  11.76892470  8.80402336  5.74078841
  11.67541701  5.88585790  8.79848388
   8.80402336 11.76892470  5.74078841
   8.76466368  5.77720497 11.76427759
   5.88585790 11.67541701  8.79848388
   5.77720497  8.76466368 11.76427759
   8.75725156  5.79235022  5.74078841
   5.79235022  8.75725156  5.74078841
   5.79217093  5.79217093  8.71056230
  14.63829493  8.78640258  8.76226016
   8.78640258 14.63829493  8.76226016
   8.78063746  8.78063746 14.61283119
   8.78063746  8.78063746  2.88160905
   8.77487234  2.92297999  8.76226016
   2.92297999  8.77487234  8.76226016
  14.63620895 11.71064084 11.70068516
  11.71064084 14.63620895 11.70068516
  11.72096260 11.72096260 14.64601934
  14.65078162 11.71810518  5.82643366
  11.71810518 14.65078162  5.82643366
  14.62586886  5.85525647 11.69578906
  11.70092756  5.86034735 14.64207927
   5.85525647 14.62586886 11.69578906
   5.86034735 11.70092756 14.64207927
  14.63146349  5.84952980  5.85032586
  11.72688947 11.72688947  2.88404576
  11.70601844  2.93540606 11.69578906
   5.84952980 14.63146349  5.85032586
   5.84031231  5.84031231 14.64601934
   2.93540606 11.70601844 11.69578906
  11.71275548  5.84851944  2.89251648
  11.71174512  2.92981143  5.85032586
   5.84851944 11.71275548  2.89251648
   2.92981143 11.71174512  5.85032586
   5.85063408  2.92506597 11.70068516
   2.92506597  5.85063408 11.70068516
   5.83438545  5.83438545  2.88404576
   5.84316973  2.91049330  5.82643366
   2.91049330  5.84316973  5.82643366
  14.65699220 14.65699220  8.77047206
  14.67346377  8.78022791 14.66320315
   8.78022791 14.67346377 14.66320315
  14.65886317  8.78711613  2.88949170
  14.62322573  2.93804919  8.76607927
   8.78711613 14.65886317  2.88949170
   8.78104700  2.88781115 14.66320315
   2.93804919 14.62322573  8.76607927
   2.88781115  8.78104700 14.66320315
   8.77415879  2.90241175  2.88949170
   2.90241175  8.77415879  2.88949170
   2.90428272  2.90428272  8.77047206
   0.00109170 11.70807722  8.76908309
   0.00000000  8.78063746 11.69474007
  11.70807722  0.00109170  8.76908309
   8.78063746  0.00000000 11.69474007
  11.71563756  8.78371348 17.53953660
   8.78371348 11.71563756 17.53953660
   0.00000000  8.78063746  5.83720567
  17.56018322  5.85319770  8.76908309
   8.78063746  0.00000000  5.83720567
   5.85319770 17.56018322  8.76908309
   8.77756144  5.84563736 17.53953660
   5.84563736  8.77756144 17.53953660
  14.64096834 14.64096834 14.61854668
  14.64471818 14.64471818  2.91364949
  14.63183874  2.92943617 14.61634404
   2.92943617 14.63183874 14.61634404
  14.63699433  2.92428059  2.91850850
   2.92428059 14.63699433  2.91850850
   2.92030657  2.92030657 14.61854668
   2.91655673  2.91655673  2.91364949
   0.00729471 14.63565034 11.69289382
   0.00462097 11.71452029 14.61457901
  14.63565034  0.00729471 11.69289382
  14.65092467 11.71971151 17.54943266
  11.71452029  0.00462097 14.61457901
  11.71971151 14.65092467 17.54943266
   0.00465311 14.63806126  5.84401943
  14.63806126  0.00465311  5.84401943
  17.55665395  5.84675462 14.61457901
  14.64160430  5.84557918 17.54927675
   0.00849068 11.71600960  2.91856419
   5.84675462 17.55665395 14.61457901
   5.84557918 14.64160430 17.54927675
  11.71600960  0.00849068  2.91856419
  17.55398020  2.92562457 11.69289382
  11.71569574  2.91967062 17.54927675
  17.55278424  5.84526532  2.91856419
   2.92562457 17.55398020 11.69289382
  17.55662181  2.92321365  5.84401943
   2.91967062 11.71569574 17.54927675
   5.84526532 17.55278424  2.91856419
   2.92321365 17.55662181  5.84401943
   5.84156340  2.91035024 17.54943266
   2.91035024  5.84156340 17.54943266
   0.00000000  0.00000000  8.76526969
   0.00000000  8.78063746  0.00157710
   8.78063746  0.00000000  0.00157710
   0.00000000  0.00000000 14.61811613
   0.00381176 14.63857186 17.54593326
  14.63857186  0.00381176 17.54593326
   0.00000000  0.00000000  2.91478252
  17.55746316  2.92270305 17.54593326
   2.92270305 17.55746316 17.54593326
   8.78063746  8.78063746 10.63343921
  10.46144043 10.46144043 10.41056250
  10.32598168  7.23529324  7.10913734
   7.23529324 10.32598168  7.10913734
   7.09983448  7.09983448 10.41056250
  13.18528514 10.24177770  7.27389878
  13.16961246  7.33549216 10.23208240
  10.24177770 13.18528514  7.27389878
  10.25313593  7.30813899 13.16264224
   7.33549216 13.16961246 10.23208240
   7.30813899 10.25313593 13.16264224
  10.25459595 10.25459595  4.32877461
  10.22578276  4.39166246 10.23208240
   4.39166246 10.22578276 10.23208240
   7.30667897  7.30667897  4.32877461
   7.31949722  4.37598978  7.27389878
   4.37598978  7.31949722  7.27389878
  13.20028415 13.20028415 10.23112499
  13.23012565 10.26242478 13.22896018
  10.26242478 13.23012565 13.22896018
  13.21109519  7.30224917  4.33204374
  13.14737411  4.41390080  7.32257209
   7.30224917 13.21109519  4.33204374
   4.41390080 13.14737411  7.32257209
   7.29885013  4.33114926 13.22896018
   4.33114926  7.29885013 13.22896018
  10.25902575  4.35017973  4.33204374
   4.35017973 10.25902575  4.33204374
   4.36099077  4.36099077 10.23112499
  16.09614169 10.24673689 10.23159485
  10.24673689 16.09614169 10.23159485
  10.24452136 10.24452136 16.08278172
  16.09897883  7.31839393  7.30292479
  13.17855063 13.17855063  4.36986427
  13.16360347  4.39767145 13.16516218
   7.31839393 16.09897883  7.30292479
   7.31675356  7.31675356 16.08278172
   4.39767145 13.16360347 13.16516218
  10.24851313  7.31276179  1.43508744
   7.31276179 10.24851313  1.43508744
  10.24288099  1.46229608  7.30292479
   7.31453803  1.46513323 10.23159485
   1.46229608 10.24288099  7.30292479
   1.46513323  7.31453803 10.23159485
   4.38272428  4.38272428  4.36986427
  16.10263898 13.17577355  7.30501350
  13.17577355 16.10263898  7.30501350
  16.09704051  7.31736409 13.15754453
  13.18550072  7.31217495 16.09560596
   7.31736409 16.09704051 13.15754453
   7.31217495 13.18550072 16.09560596
  16.10668453 10.24683298  4.37009539
  16.09224638  4.39408513 10.23152590
  10.24683298 16.10668453  4.37009539
  10.24909996  4.37577420 16.09560596
   4.39408513 16.09224638 10.23152590
   4.37577420 10.24909996 16.09560596
  13.18427669 10.24835391  1.43745832
  10.24835391 13.18427669  1.43745832
  13.16718979  1.46902854 10.23152590
  10.24391083  1.46423441 13.15754453
   1.46902854 13.16718979 10.23152590
   1.46423441 10.24391083 13.15754453
   7.31292100  4.37699822  1.43745832
   7.31444193  1.45459039  4.37009539
   4.37699822  7.31292100  1.43745832
   4.38550136  1.45863594  7.30501350
   1.45459039  7.31444193  4.37009539
   1.45863594  4.38550136  7.30501350
  16.10289648 13.17848371 13.15483775
  13.17848371 16.10289648 13.15483775
  13.18689528 13.18689528 16.09778855
  16.09279345  4.38643284  4.38614180
   4.38643284 16.09279345  4.38614180
   4.37437964  4.37437964 16.09778855
  13.18086075  4.38041417  1.44657192
  13.17484208  1.46848147  4.38614180
   4.38041417 13.18086075  1.44657192
   1.46848147 13.17484208  4.38614180
   4.38279121  1.45837844 13.15483775
   1.45837844  4.38279121 13.15483775
  16.11004044 16.11004044 10.23732344
  16.12577566 10.25653414 16.10382041
  10.25653414 16.12577566 16.10382041
  16.10564687  7.30769820  1.44683050
  16.09298091  1.46829401  7.31110961
   7.30769820 16.10564687  1.44683050
   1.46829401 16.09298091  7.31110961
   7.30474078  1.43549926 16.10382041
   1.43549926  7.30474078 16.10382041
  10.25357671  1.45562805  1.44683050
   1.45562805 10.25357671  1.44683050
   1.45123448  1.45123448 10.23732344
  16.10233955 16.10233955  4.38404789
  16.09786607  4.38505869 16.08087588
  16.10839753 13.17963783  1.45686409
   4.38505869 16.09786607 16.08087588
  13.17963783 16.10839753  1.45686409
  16.09649728  1.46477764 13.15862011
  13.17621623  1.46340885 16.08087588
   1.46477764 16.09649728 13.15862011
   1.46340885 13.17621623 16.08087588
   4.38163708  1.45287739  1.45686409
   1.45287739  4.38163708  1.45686409
   1.45893537  1.45893537  4.38404789
  16.10135204 16.10135204 16.08504322
  16.09829862  1.46297630  1.45318080
   1.46297630 16.09829862  1.45318080
   1.45992288  1.45992288 16.08504322
 


--------------------------------------------------------------------------------------------------------


 k-point  1 :   0.0000 0.0000 0.0000  plane waves:  203965
 k-point  2 :   0.3333 0.0000 0.0000  plane waves:  203781
 k-point  3 :   0.3333 0.3333 0.0000  plane waves:  203862
 k-point  4 :  -0.3333 0.3333 0.0000  plane waves:  203862
 k-point  5 :   0.0000 0.0000 0.3333  plane waves:  203781
 k-point  6 :   0.3333 0.0000 0.3333  plane waves:  203862
 k-point  7 :   0.3333 0.3333 0.3333  plane waves:  203778
 k-point  8 :  -0.3333 0.3333 0.3333  plane waves:  203778

 maximum and minimum number of plane-waves per node :    203965   203778

 maximum number of plane-waves:    203965
 maximum index in each direction: 
   IXMAX=   36   IYMAX=   36   IZMAX=   36
   IXMIN=  -36   IYMIN=  -36   IZMIN=  -36


 serial   3D FFT for wavefunctions
 parallel 3D FFT for charge:
    minimum data exchange during FFTs selected (reduces bandwidth)


 total amount of memory used by VASP MPI-rank0  1956196. kBytes
=======================================================================

   base      :      30000. kBytes
   nonl-proj :    1678371. kBytes
   fftplans  :      15087. kBytes
   grid      :     137526. kBytes
   one-center:      14259. kBytes
   wavefun   :      80953. kBytes
 
     INWAV:  cpu time    0.0000: real time    0.0000
 Broyden mixing: mesh for mixing (old mesh)
   NGX = 73   NGY = 73   NGZ = 73
  (NGX  =196   NGY  =196   NGZ  =196)
  gives a total of 389017 points

 initial charge density was supplied:
 charge density of overlapping atoms calculated
 number of electron    1949.0000000 magnetization 
 keeping initial charge density in first step


--------------------------------------------------------------------------------------------------------


 Maximum index for augmentation-charges          458 (set IRDMAX)


--------------------------------------------------------------------------------------------------------


 First call to EWALD:  gamma=   0.101
 Maximum number of real-space cells 3x 3x 3
 Maximum number of reciprocal cells 3x 3x 3

    FEWALD:  cpu time    0.0085: real time    0.0088


--------------------------------------- Iteration      1(   1)  ---------------------------------------


    POTLOK:  cpu time    0.1648: real time    0.1913
    SETDIJ:  cpu time    0.0334: real time    0.0335
     EDDAV:  cpu time 2176.2324: real time 2177.0152
       DOS:  cpu time    0.0211: real time    0.0223
    --------------------------------------------
      LOOP:  cpu time 2176.4518: real time 2177.2622

 eigenvalue-minimisations  : 41472
 total energy-change (2. order) : 0.1618114E+05  (-0.8217115E+05)
 number of electron    1949.0000000 magnetization 
 augmentation part     1949.0000000 magnetization 

 Free energy of the ion-electron system (eV)
  ---------------------------------------------------
  alpha Z        PSCENC =      6025.86535497
  Ewald energy   TEWEN  =   -132302.04106708
  -Hartree energ DENC   =    -57377.63637810
  -exchange      EXHF   =         0.00000000
  -V(xc)+E(xc)   XCENC  =      4098.92137012
  PAW double counting   =    162828.12964700  -162617.09779396
  entropy T*S    EENTRO =        -0.33082054
  eigenvalues    EBANDS =      5648.08430199
  atomic energy  EATOM  =    189877.24264489
  Solvation  Ediel_sol  =         0.00000000
  ---------------------------------------------------
  free energy    TOTEN  =     16181.13725929 eV

  energy without entropy =    16181.46807983  energy(sigma->0) =    16181.30266956


--------------------------------------------------------------------------------------------------------




--------------------------------------- Iteration      1(   2)  ---------------------------------------


     EDDAV:  cpu time 3378.2966: real time 3379.4518
       DOS:  cpu time    0.0047: real time    0.0067
    --------------------------------------------
      LOOP:  cpu time 3378.3013: real time 3379.4585

 eigenvalue-minimisations  : 55296
 total energy-change (2. order) :-0.1530624E+05  (-0.1453885E+05)
 number of electron    1949.0000000 magnetization 
 augmentation part     1949.0000000 magnetization 

 Free energy of the ion-electron system (eV)
  ---------------------------------------------------
  alpha Z        PSCENC =      6025.86535497
  Ewald energy   TEWEN  =   -132302.04106708
  -Hartree energ DENC   =    -57377.63637810
  -exchange      EXHF   =         0.00000000
  -V(xc)+E(xc)   XCENC  =      4098.92137012
  PAW double counting   =    162828.12964700  -162617.09779396
  entropy T*S    EENTRO =        -0.06704079
  eigenvalues    EBANDS =     -9658.41881998
  atomic energy  EATOM  =    189877.24264489
  Solvation  Ediel_sol  =         0.00000000
  ---------------------------------------------------
  free energy    TOTEN  =       874.89791708 eV

  energy without entropy =      874.96495786  energy(sigma->0) =      874.93143747


--------------------------------------------------------------------------------------------------------




--------------------------------------- Iteration      1(   3)  ---------------------------------------


     EDDAV:  cpu time 3338.7735: real time 3339.9018
       DOS:  cpu time    0.0087: real time    0.0096
    --------------------------------------------
      LOOP:  cpu time 3338.7823: real time 3339.9114

 eigenvalue-minimisations  : 55296
 total energy-change (2. order) :-0.1873709E+04  (-0.1860126E+04)
 number of electron    1949.0000000 magnetization 
 augmentation part     1949.0000000 magnetization 

 Free energy of the ion-electron system (eV)
  ---------------------------------------------------
  alpha Z        PSCENC =      6025.86535497
  Ewald energy   TEWEN  =   -132302.04106708
  -Hartree energ DENC   =    -57377.63637810
  -exchange      EXHF   =         0.00000000
  -V(xc)+E(xc)   XCENC  =      4098.92137012
  PAW double counting   =    162828.12964700  -162617.09779396
  entropy T*S    EENTRO =        -0.08905154
  eigenvalues    EBANDS =    -11532.10548349
  atomic energy  EATOM  =    189877.24264489
  Solvation  Ediel_sol  =         0.00000000
  ---------------------------------------------------
  free energy    TOTEN  =      -998.81075719 eV

  energy without entropy =     -998.72170565  energy(sigma->0) =     -998.76623142


--------------------------------------------------------------------------------------------------------




--------------------------------------- Iteration      1(   4)  ---------------------------------------


     EDDAV:  cpu time 3044.8940: real time 3045.9782
       DOS:  cpu time    0.0031: real time    0.0037
    --------------------------------------------
      LOOP:  cpu time 3044.8971: real time 3045.9819

 eigenvalue-minimisations  : 51840
 total energy-change (2. order) :-0.8996247E+02  (-0.8986614E+02)
 number of electron    1949.0000000 magnetization 
 augmentation part     1949.0000000 magnetization 

 Free energy of the ion-electron system (eV)
  ---------------------------------------------------
  alpha Z        PSCENC =      6025.86535497
  Ewald energy   TEWEN  =   -132302.04106708
  -Hartree energ DENC   =    -57377.63637810
  -exchange      EXHF   =         0.00000000
  -V(xc)+E(xc)   XCENC  =      4098.92137012
  PAW double counting   =    162828.12964700  -162617.09779396
  entropy T*S    EENTRO =        -0.08892730
  eigenvalues    EBANDS =    -11622.06807313
  atomic energy  EATOM  =    189877.24264489
  Solvation  Ediel_sol  =         0.00000000
  ---------------------------------------------------
  free energy    TOTEN  =     -1088.77322260 eV

  energy without entropy =    -1088.68429529  energy(sigma->0) =    -1088.72875895


--------------------------------------------------------------------------------------------------------




--------------------------------------- Iteration      1(   5)  ---------------------------------------


     EDDAV:  cpu time 2833.3721: real time 2834.3401
       DOS:  cpu time    0.0029: real time    0.0034
    CHARGE:  cpu time    3.1502: real time    3.1508
    MIXING:  cpu time    0.0017: real time    0.0018
    --------------------------------------------
      LOOP:  cpu time 2836.5269: real time 2837.4961

 eigenvalue-minimisations  : 48384
 total energy-change (2. order) :-0.5574752E+01  (-0.5573571E+01)
 number of electron    1949.0000093 magnetization 
 augmentation part      648.0122051 magnetization 

 Broyden mixing:
  rms(total) = 0.69207E+01    rms(broyden)= 0.69207E+01
  rms(prec ) = 0.71890E+01
  weight for this iteration     100.00

 Free energy of the ion-electron system (eV)
  ---------------------------------------------------
  alpha Z        PSCENC =      6025.86535497
  Ewald energy   TEWEN  =   -132302.04106708
  -Hartree energ DENC   =    -57377.63637810
  -exchange      EXHF   =         0.00000000
  -V(xc)+E(xc)   XCENC  =      4098.92137012
  PAW double counting   =    162828.12964700  -162617.09779396
  entropy T*S    EENTRO =        -0.08891153
  eigenvalues    EBANDS =    -11627.64284111
  atomic energy  EATOM  =    189877.24264489
  Solvation  Ediel_sol  =         0.00000000
  ---------------------------------------------------
  free energy    TOTEN  =     -1094.34797480 eV

  energy without entropy =    -1094.25906327  energy(sigma->0) =    -1094.30351903


--------------------------------------------------------------------------------------------------------




--------------------------------------- Iteration      1(   6)  ---------------------------------------


    POTLOK:  cpu time    0.1222: real time    0.1373
    SETDIJ:  cpu time    0.0335: real time    0.0335
     EDDAV:  cpu time 3291.9070: real time 3293.0657
       DOS:  cpu time    0.0060: real time    0.0068
    CHARGE:  cpu time    3.1414: real time    3.1419
    MIXING:  cpu time    0.0015: real time    0.0017
    --------------------------------------------
      LOOP:  cpu time 3295.2116: real time 3296.3869

 eigenvalue-minimisations  : 54720
 total energy-change (2. order) : 0.4230123E+02  (-0.8505398E+01)
 number of electron    1949.0000093 magnetization 
 augmentation part      655.3663310 magnetization 

 Broyden mixing:
  rms(total) = 0.32654E+01    rms(broyden)= 0.32654E+01
  rms(prec ) = 0.33392E+01
  weight for this iteration     100.00

 eigenvalues of (default mixing * dielectric matrix)
  average eigenvalue GAMMA=   1.8164
  1.8164

 Free energy of the ion-electron system (eV)
  ---------------------------------------------------
  alpha Z        PSCENC =      6025.86535497
  Ewald energy   TEWEN  =   -132302.04106708
  -Hartree energ DENC   =    -56924.14280812
  -exchange      EXHF   =         0.00000000
  -V(xc)+E(xc)   XCENC  =      4101.02919669
  PAW double counting   =    169215.57909668  -168984.81017391
  entropy T*S    EENTRO =        -0.08801046
  eigenvalues    EBANDS =    -12060.68097948
  atomic energy  EATOM  =    189877.24264489
  Solvation  Ediel_sol  =         0.00000000
  ---------------------------------------------------
  free energy    TOTEN  =     -1052.04674581 eV

  energy without entropy =    -1051.95873536  energy(sigma->0) =    -1052.00274059


--------------------------------------------------------------------------------------------------------




--------------------------------------- Iteration      1(   7)  ---------------------------------------


    POTLOK:  cpu time    0.1227: real time    0.1379
    SETDIJ:  cpu time    0.0333: real time    0.0333
     EDDAV:  cpu time 3353.2297: real time 3354.3800
       DOS:  cpu time    0.0028: real time    0.0036
    CHARGE:  cpu time    3.1393: real time    3.1399
    MIXING:  cpu time    0.0012: real time    0.0012
    --------------------------------------------
      LOOP:  cpu time 3356.5289: real time 3357.6959

 eigenvalue-minimisations  : 55296
 total energy-change (2. order) : 0.3341065E+01  (-0.3345968E+01)
 number of electron    1949.0000093 magnetization 
 augmentation part      656.8131501 magnetization 

 Broyden mixing:
  rms(total) = 0.17533E+01    rms(broyden)= 0.17533E+01
  rms(prec ) = 0.17717E+01
  weight for this iteration     100.00

 eigenvalues of (default mixing * dielectric matrix)
  average eigenvalue GAMMA=   1.4211
  2.2256  0.6165

 Free energy of the ion-electron system (eV)
  ---------------------------------------------------
  alpha Z        PSCENC =      6025.86535497
  Ewald energy   TEWEN  =   -132302.04106708
  -Hartree energ DENC   =    -56882.53729026
  -exchange      EXHF   =         0.00000000
  -V(xc)+E(xc)   XCENC  =      4112.90560003
  PAW double counting   =    177561.21051223  -177401.85555754
  entropy T*S    EENTRO =        -0.08968548
  eigenvalues    EBANDS =    -12039.40619211
  atomic energy  EATOM  =    189877.24264489
  Solvation  Ediel_sol  =         0.00000000
  ---------------------------------------------------
  free energy    TOTEN  =     -1048.70568035 eV

  energy without entropy =    -1048.61599487  energy(sigma->0) =    -1048.66083761


--------------------------------------------------------------------------------------------------------




--------------------------------------- Iteration      1(   8)  ---------------------------------------


    POTLOK:  cpu time    0.1360: real time    0.1510
    SETDIJ:  cpu time    0.0349: real time    0.0349
     EDDAV:  cpu time 2954.5941: real time 2955.6435
       DOS:  cpu time    0.0051: real time    0.0058
    CHARGE:  cpu time    3.1584: real time    3.1591
    MIXING:  cpu time    0.0011: real time    0.0011
    --------------------------------------------
      LOOP:  cpu time 2957.9295: real time 2958.9954

 eigenvalue-minimisations  : 50688
 total energy-change (2. order) : 0.3264030E+00  (-0.1632091E+00)
 number of electron    1949.0000093 magnetization 
 augmentation part      656.2963789 magnetization 

 Broyden mixing:
  rms(total) = 0.13336E+01    rms(broyden)= 0.13336E+01
  rms(prec ) = 0.13443E+01
  weight for this iteration     100.00

 eigenvalues of (default mixing * dielectric matrix)
  average eigenvalue GAMMA=   1.8475
  2.8808  1.3309  1.3309

 Free energy of the ion-electron system (eV)
  ---------------------------------------------------
  alpha Z        PSCENC =      6025.86535497
  Ewald energy   TEWEN  =   -132302.04106708
  -Hartree energ DENC   =    -56914.55990418
  -exchange      EXHF   =         0.00000000
  -V(xc)+E(xc)   XCENC  =      4115.91557286
  PAW double counting   =    180142.98661226  -180011.03193986
  entropy T*S    EENTRO =        -0.08892044
  eigenvalues    EBANDS =    -11982.66763077
  atomic energy  EATOM  =    189877.24264489
  Solvation  Ediel_sol  =         0.00000000
  ---------------------------------------------------
  free energy    TOTEN  =     -1048.37927733 eV

  energy without entropy =    -1048.29035689  energy(sigma->0) =    -1048.33481711


--------------------------------------------------------------------------------------------------------




--------------------------------------- Iteration      1(   9)  ---------------------------------------


    POTLOK:  cpu time    0.2850: real time    0.3000
    SETDIJ:  cpu time    0.0389: real time    0.0390
     EDDAV:  cpu time 3167.7907: real time 3168.9624
       DOS:  cpu time    0.0098: real time    0.0106
    CHARGE:  cpu time    3.1355: real time    3.1361
    MIXING:  cpu time    0.0012: real time    0.0012
    --------------------------------------------
      LOOP:  cpu time 3171.2610: real time 3172.4494

 eigenvalue-minimisations  : 52992
 total energy-change (2. order) : 0.2619735E+00  (-0.6240255E-01)
 number of electron    1949.0000093 magnetization 
 augmentation part      656.0489294 magnetization 

 Broyden mixing:
  rms(total) = 0.18925E+00    rms(broyden)= 0.18925E+00
  rms(prec ) = 0.20888E+00
  weight for this iteration     100.00

 eigenvalues of (default mixing * dielectric matrix)
  average eigenvalue GAMMA=   1.5796
  2.4933  1.6973  0.9149  1.2127

 Free energy of the ion-electron system (eV)
  ---------------------------------------------------
  alpha Z        PSCENC =      6025.86535497
  Ewald energy   TEWEN  =   -132302.04106708
  -Hartree energ DENC   =    -56926.47143831
  -exchange      EXHF   =         0.00000000
  -V(xc)+E(xc)   XCENC  =      4118.16741799
  PAW double counting   =    182664.72019811  -182547.53973270
  entropy T*S    EENTRO =        -0.08736788
  eigenvalues    EBANDS =    -11957.97331378
  atomic energy  EATOM  =    189877.24264489
  Solvation  Ediel_sol  =         0.00000000
  ---------------------------------------------------
  free energy    TOTEN  =     -1048.11730379 eV

  energy without entropy =    -1048.02993591  energy(sigma->0) =    -1048.07361985


--------------------------------------------------------------------------------------------------------




--------------------------------------- Iteration      1(  10)  ---------------------------------------


    POTLOK:  cpu time    0.1340: real time    0.1501
    SETDIJ:  cpu time    0.0325: real time    0.0325
     EDDAV:  cpu time 3035.7719: real time 3036.8141
       DOS:  cpu time    0.0064: real time    0.0178
    CHARGE:  cpu time    3.1432: real time    3.1473
    MIXING:  cpu time    0.0015: real time    0.0015
    --------------------------------------------
      LOOP:  cpu time 3039.0895: real time 3040.1632

 eigenvalue-minimisations  : 51264
 total energy-change (2. order) : 0.6048191E-01  (-0.3977539E-01)
 number of electron    1949.0000093 magnetization 
 augmentation part      655.7394775 magnetization 

 Broyden mixing:
  rms(total) = 0.82683E-01    rms(broyden)= 0.82683E-01
  rms(prec ) = 0.96221E-01
  weight for this iteration     100.00

 eigenvalues of (default mixing * dielectric matrix)
  average eigenvalue GAMMA=   1.3855
  2.3833  1.9936  1.0520  1.0520  0.4468

 Free energy of the ion-electron system (eV)
  ---------------------------------------------------
  alpha Z        PSCENC =      6025.86535497
  Ewald energy   TEWEN  =   -132302.04106708
  -Hartree energ DENC   =    -56939.79391612
  -exchange      EXHF   =         0.00000000
  -V(xc)+E(xc)   XCENC  =      4117.59525100
  PAW double counting   =    182161.18276540  -182041.94037428
  entropy T*S    EENTRO =        -0.08158993
  eigenvalues    EBANDS =    -11946.08589073
  atomic energy  EATOM  =    189877.24264489
  Solvation  Ediel_sol  =         0.00000000
  ---------------------------------------------------
  free energy    TOTEN  =     -1048.05682189 eV

  energy without entropy =    -1047.97523195  energy(sigma->0) =    -1048.01602692


--------------------------------------------------------------------------------------------------------




--------------------------------------- Iteration      1(  11)  ---------------------------------------


    POTLOK:  cpu time    0.1262: real time    0.1323
    SETDIJ:  cpu time    0.0379: real time    0.0379
     EDDAV:  cpu time 2902.5201: real time 2903.4902
       DOS:  cpu time    0.0084: real time    0.0092
    CHARGE:  cpu time    3.1622: real time    3.1629
    MIXING:  cpu time    0.0013: real time    0.0018
    --------------------------------------------
      LOOP:  cpu time 2905.8560: real time 2906.8342

 eigenvalue-minimisations  : 50112
 total energy-change (2. order) : 0.5833491E-02  (-0.6573758E-02)
 number of electron    1949.0000093 magnetization 
 augmentation part      655.6004485 magnetization 

 Broyden mixing:
  rms(total) = 0.35065E-01    rms(broyden)= 0.35065E-01
  rms(prec ) = 0.35891E-01
  weight for this iteration     100.00

 eigenvalues of (default mixing * dielectric matrix)
  average eigenvalue GAMMA=   1.3130
  2.3302  2.0183  1.1585  0.9585  0.9585  0.4541

 Free energy of the ion-electron system (eV)
  ---------------------------------------------------
  alpha Z        PSCENC =      6025.86535497
  Ewald energy   TEWEN  =   -132302.04106708
  -Hartree energ DENC   =    -56943.41079029
  -exchange      EXHF   =         0.00000000
  -V(xc)+E(xc)   XCENC  =      4117.55830334
  PAW double counting   =    182082.51922892  -181963.10168504
  entropy T*S    EENTRO =        -0.08904978
  eigenvalues    EBANDS =    -11942.59392833
  atomic energy  EATOM  =    189877.24264489
  Solvation  Ediel_sol  =         0.00000000
  ---------------------------------------------------
  free energy    TOTEN  =     -1048.05098839 eV

  energy without entropy =    -1047.96193861  energy(sigma->0) =    -1048.00646350


--------------------------------------------------------------------------------------------------------




--------------------------------------- Iteration      1(  12)  ---------------------------------------


    POTLOK:  cpu time    0.1361: real time    0.1646
    SETDIJ:  cpu time    0.0337: real time    0.0337
     EDDAV:  cpu time 2329.4919: real time 2330.2955
       DOS:  cpu time    0.0036: real time    0.0048
    CHARGE:  cpu time    3.1555: real time    3.1562
    MIXING:  cpu time    0.0015: real time    0.0015
    --------------------------------------------
      LOOP:  cpu time 2332.8224: real time 2333.6563

 eigenvalue-minimisations  : 42048
 total energy-change (2. order) :-0.5467020E-03  (-0.4905828E-03)
 number of electron    1949.0000093 magnetization 
 augmentation part      655.5906635 magnetization 

 Broyden mixing:
  rms(total) = 0.21265E-01    rms(broyden)= 0.21265E-01
  rms(prec ) = 0.21756E-01
  weight for this iteration     100.00

 eigenvalues of (default mixing * dielectric matrix)
  average eigenvalue GAMMA=   1.4256
  2.2901  2.2901  1.7831  1.1602  1.1602  0.8407  0.4549

 Free energy of the ion-electron system (eV)
  ---------------------------------------------------
  alpha Z        PSCENC =      6025.86535497
  Ewald energy   TEWEN  =   -132302.04106708
  -Hartree energ DENC   =    -56943.83868888
  -exchange      EXHF   =         0.00000000
  -V(xc)+E(xc)   XCENC  =      4117.53444895
  PAW double counting   =    182026.50420068  -181907.03714494
  entropy T*S    EENTRO =        -0.08911453
  eigenvalues    EBANDS =    -11942.19216916
  atomic energy  EATOM  =    189877.24264489
  Solvation  Ediel_sol  =         0.00000000
  ---------------------------------------------------
  free energy    TOTEN  =     -1048.05153510 eV

  energy without entropy =    -1047.96242057  energy(sigma->0) =    -1048.00697783


--------------------------------------------------------------------------------------------------------




--------------------------------------- Iteration      1(  13)  ---------------------------------------


    POTLOK:  cpu time    0.1219: real time    0.1514
    SETDIJ:  cpu time    0.0393: real time    0.0393
     EDDAV:  cpu time 2961.6809: real time 2962.7239
       DOS:  cpu time    0.0028: real time    0.0036
    CHARGE:  cpu time    3.1309: real time    3.1314
    MIXING:  cpu time    0.0014: real time    0.0018
    --------------------------------------------
      LOOP:  cpu time 2964.9772: real time 2966.0514

 eigenvalue-minimisations  : 50688
 total energy-change (2. order) :-0.3665166E-03  (-0.1143955E-03)
 number of electron    1949.0000093 magnetization 
 augmentation part      655.5744346 magnetization 

 Broyden mixing:
  rms(total) = 0.49462E-02    rms(broyden)= 0.49462E-02
  rms(prec ) = 0.53251E-02
  weight for this iteration     100.00

 eigenvalues of (default mixing * dielectric matrix)
  average eigenvalue GAMMA=   1.4217
  2.4257  2.4257  1.7246  1.1906  1.1906  0.9803  0.9803  0.4562

 Free energy of the ion-electron system (eV)
  ---------------------------------------------------
  alpha Z        PSCENC =      6025.86535497
  Ewald energy   TEWEN  =   -132302.04106708
  -Hartree energ DENC   =    -56945.12250017
  -exchange      EXHF   =         0.00000000
  -V(xc)+E(xc)   XCENC  =      4117.49868486
  PAW double counting   =    181970.36258577  -181851.02119818
  entropy T*S    EENTRO =        -0.08900801
  eigenvalues    EBANDS =    -11940.74739866
  atomic energy  EATOM  =    189877.24264489
  Solvation  Ediel_sol  =         0.00000000
  ---------------------------------------------------
  free energy    TOTEN  =     -1048.05190161 eV

  energy without entropy =    -1047.96289360  energy(sigma->0) =    -1048.00739761


[...]
      8.78064      8.78064     10.63298        -0.000000     -0.000000      0.005448
     10.45596     10.45596     10.41072         0.010001      0.010001      0.005872
     10.32705      7.23422      7.11230         0.003019     -0.003019     -0.000971
      7.23422     10.32705      7.11230        -0.003019      0.003019     -0.000971
      7.10531      7.10531     10.41072        -0.010001     -0.010001      0.005872
     13.18480     10.24210      7.27426        -0.003831      0.000704      0.005098
     13.16883      7.33405     10.23174         0.001116      0.000023      0.000387
     10.24210     13.18480      7.27426         0.000704     -0.003831      0.005098
     10.25233      7.30895     13.16379         0.000476     -0.000476      0.003515
      7.33405     13.16883     10.23174         0.000023      0.001116      0.000387
      7.30895     10.25233     13.16379        -0.000476      0.000476      0.003515
     10.25406     10.25406      4.32923        -0.000289     -0.000289      0.002524
     10.22723      4.39244     10.23174        -0.000023     -0.001116      0.000387
      4.39244     10.22723     10.23174        -0.001116     -0.000023      0.000387
      7.30721      7.30721      4.32923         0.000289      0.000289      0.002524
      7.31917      4.37648      7.27426        -0.000704      0.003831      0.005098
      4.37648      7.31917      7.27426         0.003831     -0.000704      0.005098
     13.19933     13.19933     10.23215        -0.000700     -0.000700      0.000961
     13.22851     10.26264     13.22674        -0.001483     -0.000232     -0.001539
     10.26264     13.22851     13.22674        -0.000232     -0.001483     -0.001539
     13.20979      7.30230      4.33314         0.000746      0.000696     -0.000841
     13.15050      4.41078      7.31953         0.002618     -0.002618     -0.001880
      7.30230     13.20979      4.33314         0.000696      0.000746     -0.000841
      4.41078     13.15050      7.31953        -0.002618      0.002618     -0.001880
      7.29864      4.33277     13.22674         0.000232      0.001483     -0.001539
      4.33277      7.29864     13.22674         0.001483      0.000232     -0.001539
     10.25898      4.35148      4.33314        -0.000696     -0.000746     -0.000841
      4.35148     10.25898      4.33314        -0.000746     -0.000696     -0.000841
      4.36195      4.36195     10.23215         0.000700      0.000700      0.000961
     16.09629     10.24648     10.23156        -0.000840     -0.000971     -0.000370
     10.24648     16.09629     10.23156        -0.000971     -0.000840     -0.000370
     10.24425     10.24425     16.08265         0.001391      0.001391      0.000082
     16.09875      7.31805      7.30314        -0.000214      0.001498      0.001364
     13.17815     13.17815      4.36964         0.000006      0.000006      0.000109
     13.16377      4.39751     13.16493        -0.000107      0.000107     -0.000265
      7.31805     16.09875      7.30314         0.001498     -0.000214      0.001364
      7.31702      7.31702     16.08265        -0.001391     -0.001391      0.000082
      4.39751     13.16377     13.16493         0.000107     -0.000107     -0.000265
     10.24849      7.31279      1.43512         0.000010     -0.000010      0.000235
      7.31279     10.24849      1.43512        -0.000010      0.000010      0.000235
     10.24322      1.46252      7.30314        -0.001498      0.000214      0.001364
      7.31480      1.46498     10.23156         0.000971      0.000840     -0.000370
      1.46252     10.24322      7.30314         0.000214     -0.001498      0.001364
      1.46498      7.31480     10.23156         0.000840      0.000971     -0.000370
      4.38312      4.38312      4.36964        -0.000006     -0.000006      0.000109
     16.10226     13.17530      7.30490         0.000050      0.000535      0.000357
     13.17530     16.10226      7.30490         0.000535      0.000050      0.000357
     16.09736      7.31733     13.15734        -0.001262      0.000438      0.001291
     13.18479      7.31247     16.09498         0.001640      0.000029     -0.001425
      7.31733     16.09736     13.15734         0.000438     -0.001262      0.001291
      7.31247     13.18479     16.09498         0.000029      0.001640     -0.001425
     16.10607     10.24666      4.37056        -0.000068     -0.001282     -0.001111
     16.09205      4.39432     10.23163         0.001471     -0.000858      0.001061
     10.24666     16.10607      4.37056        -0.001282     -0.000068     -0.001111
     10.24881      4.37649     16.09498        -0.000029     -0.001640     -0.001425
      4.39432     16.09205     10.23163        -0.000858      0.001471      0.001061
      4.37649     10.24881     16.09498        -0.001640     -0.000029     -0.001425
     13.18318     10.24817      1.43754         0.001388     -0.001384      0.000515
     10.24817     13.18318      1.43754        -0.001384      0.001388      0.000515
     13.16695      1.46922     10.23163         0.000858     -0.001471      0.001061
     10.24394      1.46391     13.15734        -0.000438      0.001262      0.001291
      1.46922     13.16695     10.23163        -0.001471      0.000858      0.001061
      1.46391     10.24394     13.15734         0.001262     -0.000438      0.001291
      7.31310      4.37809      1.43754         0.001384     -0.001388      0.000515
      7.31461      1.45521      4.37056         0.001282      0.000068     -0.001111
      4.37809      7.31310      1.43754        -0.001388      0.001384      0.000515
      4.38598      1.45902      7.30490        -0.000535     -0.000050      0.000357
      1.45521      7.31461      4.37056         0.000068      0.001282     -0.001111
      1.45902      4.38598      7.30490        -0.000050     -0.000535      0.000357
     16.10296     13.17806     13.15539        -0.000213      0.000172      0.000737
     13.17806     16.10296     13.15539         0.000172     -0.000213      0.000737
     13.18657     13.18657     16.09791        -0.000744     -0.000744     -0.002230
     16.09294      4.38646      4.38586         0.001769     -0.000600     -0.002933
      4.38646     16.09294      4.38586        -0.000600      0.001769     -0.002933
      4.37471      4.37471     16.09791         0.000744      0.000744     -0.002230
     13.18054      4.38073      1.44662         0.000165     -0.000165     -0.000279
     13.17482      1.46833      4.38586         0.000600     -0.001769     -0.002933
      4.38073     13.18054      1.44662        -0.000165      0.000165     -0.000279
      1.46833     13.17482      4.38586        -0.001769      0.000600     -0.002933
      4.38322      1.45831     13.15539        -0.000172      0.000213      0.000737
      1.45831      4.38322     13.15539         0.000213     -0.000172      0.000737
     16.10920     16.10920     10.23678        -0.000342     -0.000342      0.000237
     16.12435     10.25618     16.10327        -0.000790     -0.001349     -0.000212
     10.25618     16.12435     16.10327        -0.001349     -0.000790     -0.000212
     16.10558      7.30782      1.44703         0.000440      0.000535     -0.000470
     16.09310      1.46817      7.31084         0.001847     -0.001847     -0.000107
      7.30782     16.10558      1.44703         0.000535      0.000440     -0.000470
      1.46817     16.09310      7.31084        -0.001847      0.001847     -0.000107
      7.30509      1.43692     16.10327         0.001349      0.000790     -0.000212
      1.43692      7.30509     16.10327         0.000790      0.001349     -0.000212
     10.25346      1.45569      1.44703        -0.000535     -0.000440     -0.000470
      1.45569     10.25346      1.44703        -0.000440     -0.000535     -0.000470
      1.45208      1.45208     10.23678         0.000342      0.000342      0.000237
     16.10224     16.10224      4.38373        -0.000223     -0.000223     -0.000124
     16.09799      4.38498     16.08108        -0.000345      0.001068      0.000495
     16.10792     13.17967      1.45678        -0.000184     -0.001486     -0.000803
      4.38498     16.09799     16.08108         0.001068     -0.000345      0.000495
     13.17967     16.10792      1.45678        -0.001486     -0.000184     -0.000803
     16.09657      1.46470     13.15870         0.000267     -0.000267     -0.001069
     13.17630      1.46329     16.08108        -0.001068      0.000345      0.000495
      1.46470     16.09657     13.15870        -0.000267      0.000267     -0.001069
      1.46329     13.17630     16.08108         0.000345     -0.001068      0.000495
      4.38161      1.45335      1.45678         0.001486      0.000184     -0.000803
      1.45335      4.38161      1.45678         0.000184      0.001486     -0.000803
      1.45904      1.45904      4.38373         0.000223      0.000223     -0.000124
     16.10125     16.10125     16.08512        -0.000461     -0.000461     -0.001085
     16.09852      1.46276      1.45281        -0.000453      0.000453     -0.000413
      1.46276     16.09852      1.45281         0.000453     -0.000453     -0.000413
      1.46003      1.46003     16.08512         0.000461      0.000461     -0.001085
 -----------------------------------------------------------------------------------
    total drift:                               -0.000000     -0.000000      0.002366


--------------------------------------------------------------------------------------------------------



  FREE ENERGIE OF THE ION-ELECTRON SYSTEM (eV)
  ---------------------------------------------------
  free  energy   TOTEN  =     -1048.05319952 eV

  energy  without entropy=    -1047.96408390  energy(sigma->0) =    -1048.00864171

  SIGMA =         0.10000000
  enthalpy is  TOTEN    =     -1074.58869489 eV   P V=      -26.53549537

 d Force = 0.1487589E-03[ 0.146E-04, 0.283E-03]  d Energy = 0.1299469E-03 0.188E-04
 d Force =-0.9231642E-01[-0.957E-01,-0.889E-01]  d Ewald  =-0.9232371E-01 0.729E-05


--------------------------------------------------------------------------------------------------------


    POTLOK:  cpu time    0.1684: real time    0.1691


--------------------------------------------------------------------------------------------------------




--------------------------------------------------------------------------------------------------------


    WAVPRE:  cpu time    0.0282: real time    0.0975
    FEWALD:  cpu time    0.0084: real time    0.0087
    ORTHCH:  cpu time  191.3737: real time  191.4190
     LOOP+:  cpu time19424.7110: real time19430.9788


--------------------------------------- Iteration      8(   1)  ---------------------------------------


    POTLOK:  cpu time    0.1192: real time    0.1562
    SETDIJ:  cpu time    0.0333: real time    0.0333
     EDDAV:  cpu time 2938.6517: real time 2939.5559
       DOS:  cpu time    0.0066: real time    0.0075
    CHARGE:  cpu time    3.1355: real time    3.1360
    MIXING:  cpu time    0.0008: real time    0.0008
    --------------------------------------------
      LOOP:  cpu time 2941.9471: real time 2942.8897

 eigenvalue-minimisations  : 50688
 total energy-change (2. order) : 0.1758560E-03  (-0.1007542E-01)
 number of electron    1949.0000083 magnetization 
 augmentation part      655.5675060 magnetization 

 Broyden mixing:
  rms(total) = 0.34619E-02    rms(broyden)= 0.34618E-02
  rms(prec ) = 0.38233E-02
  weight for this iteration     100.00

 Free energy of the ion-electron system (eV)
  ---------------------------------------------------
  alpha Z        PSCENC =      6025.86535497
  Ewald energy   TEWEN  =   -132301.73242565
  -Hartree energ DENC   =    -56945.83510312
  -exchange      EXHF   =         0.00000000
  -V(xc)+E(xc)   XCENC  =      4117.48470673
  PAW double counting   =    181969.49916160  -181850.15311775
  entropy T*S    EENTRO =        -0.08914791
  eigenvalues    EBANDS =    -11940.33509786
  atomic energy  EATOM  =    189877.24264489
  Solvation  Ediel_sol  =         0.00000000
  ---------------------------------------------------
  free energy    TOTEN  =     -1048.05302409 eV

  energy without entropy =    -1047.96387618  energy(sigma->0) =    -1048.00845013


--------------------------------------------------------------------------------------------------------




--------------------------------------- Iteration      8(   2)  ---------------------------------------


    POTLOK:  cpu time    0.1425: real time    0.1486
    SETDIJ:  cpu time    0.0331: real time    0.0331
     EDDAV:  cpu time 2554.1800: real time 2555.0011
       DOS:  cpu time    0.0074: real time    0.0083
    CHARGE:  cpu time    3.1808: real time    3.1816
    MIXING:  cpu time    0.0010: real time    0.0010
    --------------------------------------------
      LOOP:  cpu time 2557.5447: real time 2558.3736

 eigenvalue-minimisations  : 46080
 total energy-change (2. order) :-0.2699121E-03  (-0.3034266E-03)
 number of electron    1949.0000083 magnetization 
 augmentation part      655.5674944 magnetization 

 Broyden mixing:
  rms(total) = 0.18416E-02    rms(broyden)= 0.18415E-02
  rms(prec ) = 0.20374E-02
  weight for this iteration     100.00

 eigenvalues of (default mixing * dielectric matrix)
  average eigenvalue GAMMA=   0.7283
  0.7283

 Free energy of the ion-electron system (eV)
  ---------------------------------------------------
  alpha Z        PSCENC =      6025.86535497
  Ewald energy   TEWEN  =   -132301.73242565
  -Hartree energ DENC   =    -56945.83300362
  -exchange      EXHF   =         0.00000000
  -V(xc)+E(xc)   XCENC  =      4117.48467227
  PAW double counting   =    181969.52846649  -181850.18268875
  entropy T*S    EENTRO =        -0.08906028
  eigenvalues    EBANDS =    -11940.33725432
  atomic energy  EATOM  =    189877.24264489
  Solvation  Ediel_sol  =         0.00000000
  ---------------------------------------------------
  free energy    TOTEN  =     -1048.05329400 eV

  energy without entropy =    -1047.96423372  energy(sigma->0) =    -1048.00876386


--------------------------------------------------------------------------------------------------------




--------------------------------------- Iteration      8(   3)  ---------------------------------------


    POTLOK:  cpu time    0.1378: real time    0.1456
    SETDIJ:  cpu time    0.0345: real time    0.0345
     EDDAV:  cpu time 2937.6235: real time 2938.5681
       DOS:  cpu time    0.0067: real time    0.0075
    CHARGE:  cpu time    3.1330: real time    3.1335
    MIXING:  cpu time    0.0011: real time    0.0011
    --------------------------------------------
      LOOP:  cpu time 2940.9367: real time 2941.8904

 eigenvalue-minimisations  : 50688
 total energy-change (2. order) :-0.1213091E-04  (-0.1804161E-04)
 number of electron    1949.0000083 magnetization 
 augmentation part      655.5674008 magnetization 

 Broyden mixing:
  rms(total) = 0.12152E-02    rms(broyden)= 0.12152E-02
  rms(prec ) = 0.13434E-02
  weight for this iteration     100.00

 eigenvalues of (default mixing * dielectric matrix)
  average eigenvalue GAMMA=   0.7515
  0.7515  0.7515

 Free energy of the ion-electron system (eV)
  ---------------------------------------------------
  alpha Z        PSCENC =      6025.86535497
  Ewald energy   TEWEN  =   -132301.73242565
  -Hartree energ DENC   =    -56945.83156074
  -exchange      EXHF   =         0.00000000
  -V(xc)+E(xc)   XCENC  =      4117.48462185
  PAW double counting   =    181969.53601051  -181850.19017703
  entropy T*S    EENTRO =        -0.08913244
  eigenvalues    EBANDS =    -11940.33864250
  atomic energy  EATOM  =    189877.24264489
  Solvation  Ediel_sol  =         0.00000000
  ---------------------------------------------------
  free energy    TOTEN  =     -1048.05330613 eV

  energy without entropy =    -1047.96417369  energy(sigma->0) =    -1048.00873991


--------------------------------------------------------------------------------------------------------




--------------------------------------- Iteration      8(   4)  ---------------------------------------


    POTLOK:  cpu time    0.3040: real time    0.3157
    SETDIJ:  cpu time    0.0344: real time    0.0344
     EDDAV:  cpu time 2903.3144: real time 2904.2462
       DOS:  cpu time    0.0068: real time    0.0176
    CHARGE:  cpu time    3.1469: real time    3.1480
    MIXING:  cpu time    0.0012: real time    0.0011
    --------------------------------------------
      LOOP:  cpu time 2906.8078: real time 2907.7632

 eigenvalue-minimisations  : 50112
 total energy-change (2. order) : 0.7908675E-06  (-0.1502059E-05)
 number of electron    1949.0000083 magnetization 
 augmentation part      655.5674399 magnetization 

 Broyden mixing:
  rms(total) = 0.96090E-03    rms(broyden)= 0.96090E-03
  rms(prec ) = 0.10588E-02
  weight for this iteration     100.00

 eigenvalues of (default mixing * dielectric matrix)
  average eigenvalue GAMMA=   0.9013
  1.1265  1.1265  0.4511

 Free energy of the ion-electron system (eV)
  ---------------------------------------------------
  alpha Z        PSCENC =      6025.86535497
  Ewald energy   TEWEN  =   -132301.73242565
  -Hartree energ DENC   =    -56945.83233245
  -exchange      EXHF   =         0.00000000
  -V(xc)+E(xc)   XCENC  =      4117.48466500
  PAW double counting   =    181969.54603330  -181850.20026792
  entropy T*S    EENTRO =        -0.08908726
  eigenvalues    EBANDS =    -11940.33789022
  atomic energy  EATOM  =    189877.24264489
  Solvation  Ediel_sol  =         0.00000000
  ---------------------------------------------------
  free energy    TOTEN  =     -1048.05330534 eV

  energy without entropy =    -1047.96421808  energy(sigma->0) =    -1048.00876171


--------------------------------------------------------------------------------------------------------




--------------------------------------- Iteration      8(   5)  ---------------------------------------


    POTLOK:  cpu time    0.1232: real time    0.2912
    SETDIJ:  cpu time    0.0370: real time    0.0370
     EDDAV:  cpu time 2799.7296: real time 2800.6547
       DOS:  cpu time    0.0099: real time    0.0106
    CHARGE:  cpu time    3.1190: real time    3.1266
    MIXING:  cpu time    0.0012: real time    0.0012
    --------------------------------------------
      LOOP:  cpu time 2803.0199: real time 2804.1213

 eigenvalue-minimisations  : 48960
 total energy-change (2. order) : 0.1706940E-05  (-0.5318014E-06)
 number of electron    1949.0000083 magnetization 
 augmentation part      655.5674069 magnetization 

 Broyden mixing:
  rms(total) = 0.36955E-03    rms(broyden)= 0.36955E-03
  rms(prec ) = 0.38719E-03
  weight for this iteration     100.00

 eigenvalues of (default mixing * dielectric matrix)
  average eigenvalue GAMMA=   1.0908
  1.6803  1.1212  1.1212  0.4405

 Free energy of the ion-electron system (eV)
  ---------------------------------------------------
  alpha Z        PSCENC =      6025.86535497
  Ewald energy   TEWEN  =   -132301.73242565
  -Hartree energ DENC   =    -56945.83257180
  -exchange      EXHF   =         0.00000000
  -V(xc)+E(xc)   XCENC  =      4117.48466150
  PAW double counting   =    181969.55091906  -181850.20522292
  entropy T*S    EENTRO =        -0.08911101
  eigenvalues    EBANDS =    -11940.33755269
  atomic energy  EATOM  =    189877.24264489
  Solvation  Ediel_sol  =         0.00000000
  ---------------------------------------------------
  free energy    TOTEN  =     -1048.05330363 eV

  energy without entropy =    -1047.96419263  energy(sigma->0) =    -1048.00874813


--------------------------------------------------------------------------------------------------------




--------------------------------------- Iteration      8(   6)  ---------------------------------------


    POTLOK:  cpu time    0.1396: real time    0.1479
    SETDIJ:  cpu time    0.0369: real time    0.0369
