 vasp.5.4.4.18Apr17-6-g9f103f2a35 (build Aug 01 2017 10:32:50) complex          
  
 executed on             LinuxIFC date 2018.05.21  23:37:27
 running on  576 total cores
 distrk:  each k-point on  576 cores,    1 groups
 distr:  one band on NCORES_PER_BAND=   1 cores,  576 groups


--------------------------------------------------------------------------------------------------------


 INCAR:
 POTCAR:    PAW In_d_GW 15Mar2013                 
 POTCAR:    PAW P_GW 19Mar2012                    

 ----------------------------------------------------------------------------- 
|                                                                             |
|           W    W    AA    RRRRR   N    N  II  N    N   GGGG   !!!           |
|           W    W   A  A   R    R  NN   N  II  NN   N  G    G  !!!           |
|           W    W  A    A  R    R  N N  N  II  N N  N  G       !!!           |
|           W WW W  AAAAAA  RRRRR   N  N N  II  N  N N  G  GGG   !            |
|           WW  WW  A    A  R   R   N   NN  II  N   NN  G    G                |
|           W    W  A    A  R    R  N    N  II  N    N   GGGG   !!!           |
|                                                                             |
|      For optimal performance we recommend to set                            |
|        NCORE= 4 - approx SQRT( number of cores)                             |
|      NCORE specifies how many cores store one orbital (NPAR=cpu/NCORE).     |
|      This setting can  greatly improve the performance of VASP for DFT.     |
|      The default,   NCORE=1            might be grossly inefficient         |
|      on modern multi-core architectures or massively parallel machines.     |
|      Do your own testing !!!!                                               |
|      Unfortunately you need to use the default for GW and RPA calculations. |
|      (for HF NCORE is supported but not extensively tested yet)             |
|                                                                             |
 ----------------------------------------------------------------------------- 

 POTCAR:    PAW In_d_GW 15Mar2013                 
   VRHFIN =In: s2p1                                                             
   LEXCH  = CA                                                                  
   EATOM  =  1579.9794 eV,  116.1252 Ry                                         
                                                                                
   TITEL  = PAW In_d_GW 15Mar2013                                               
   LULTRA =        F    use ultrasoft PP ?                                      
   IUNSCR =        1    unscreen: 0-lin 1-nonlin 2-no                           
   RPACOR =    2.200    partial core radius                                     
   POMASS =  114.820; ZVAL   =   13.000    mass and valenz                      
   RCORE  =    2.500    outmost cutoff radius                                   
   RWIGS  =    2.500; RWIGS  =    1.323    wigner-seitz radius (au A)           
   ENMAX  =  278.582; ENMIN  =  208.936 eV                                      
   RCLOC  =    1.602    cutoff for local pot                                    
   LCOR   =        T    correct aug charges                                     
   LPAW   =        T    paw PP                                                  
   EAUG   =  662.551                                                            
   DEXC   =    0.000                                                            
   RMAX   =    2.552    core radius for proj-oper                               
   RAUG   =    1.300    factor for augmentation sphere                          
   RDEP   =    2.630    radius for radial grids                                 
   RDEPT  =    2.023    core radius for aug-charge                              
                                                                                
   Atomic configuration                                                         
   12 entries                                                                   
     n  l   j            E        occ.                                          
     1  0  0.50    -27589.7837   2.0000                                         
     2  0  0.50     -4136.3979   2.0000                                         
     2  1  1.50     -3718.7207   6.0000                                         
     3  0  0.50      -784.7368   2.0000                                         
     3  1  1.50      -647.3912   6.0000                                         
     3  2  2.50      -432.7327  10.0000                                         
     4  0  0.50      -119.0564   2.0000                                         
     4  1  1.50       -77.8989   6.0000                                         
     4  2  2.50       -18.7494  10.0000                                         
     5  0  0.50        -8.4628   2.0000                                         
     5  1  0.50        -2.7047   1.0000                                         
     4  3  2.50        -2.7212   0.0000                                         
   Description                                                                  
     l       E           TYP  RCUT    TYP  RCUT                                 
     2    -18.7494033     23  2.300                                             
     2    -20.1099859     23  2.300                                             
     2     68.0291300     23  2.300                                             
     0     -8.4627526     23  1.900                                             
     0     81.6349560     23  1.900                                             
     1     -2.7046683     23  2.100                                             
     1     81.6349560     23  2.300                                             
     3     20.4087390     23  2.500                                             
     3     40.8174780     23  2.500                                             
  local pseudopotential read in
  partial core-charges read in
  partial kinetic energy density read in
  kinetic energy density of atom read in
  atomic valenz-charges read in
  non local Contribution for L=           2  read in
    real space projection operators read in
  non local Contribution for L=           2  read in
    real space projection operators read in
  non local Contribution for L=           2  read in
    real space projection operators read in
  non local Contribution for L=           0  read in
    real space projection operators read in
  non local Contribution for L=           0  read in
    real space projection operators read in
  non local Contribution for L=           1  read in
    real space projection operators read in
  non local Contribution for L=           1  read in
    real space projection operators read in
  non local Contribution for L=           3  read in
    real space projection operators read in
  non local Contribution for L=           3  read in
    real space projection operators read in
    PAW grid and wavefunctions read in
 
   number of l-projection  operators is LMAX  =           9
   number of lm-projection operators is LMMAX =          37
 
 POTCAR:    PAW P_GW 19Mar2012                    
   VRHFIN =P : s2p3                                                             
   LEXCH  = CA                                                                  
   EATOM  =   176.5121 eV,   12.9733 Ry                                         
                                                                                
   TITEL  = PAW P_GW 19Mar2012                                                  
   LULTRA =        F    use ultrasoft PP ?                                      
   IUNSCR =        1    unscreen: 0-lin 1-nonlin 2-no                           
   RPACOR =    1.400    partial core radius                                     
   POMASS =   30.974; ZVAL   =    5.000    mass and valenz                      
   RCORE  =    2.000    outmost cutoff radius                                   
   RWIGS  =    1.900; RWIGS  =    1.005    wigner-seitz radius (au A)           
   ENMAX  =  255.155; ENMIN  =  191.366 eV                                      
   ICORE  =        3    local potential                                         
   LCOR   =        T    correct aug charges                                     
   LPAW   =        T    paw PP                                                  
   EAUG   =  499.732                                                            
   DEXC   =    0.000                                                            
   RMAX   =    2.047    core radius for proj-oper                               
   RAUG   =    1.300    factor for augmentation sphere                          
   RDEP   =    2.059    radius for radial grids                                 
   RDEPT  =    1.900    core radius for aug-charge                              
                                                                                
   Atomic configuration                                                         
    7 entries                                                                   
     n  l   j            E        occ.                                          
     1  0  0.50     -2072.7761   2.0000                                         
     2  0  0.50      -172.9483   2.0000                                         
     2  1  1.50      -124.4644   6.0000                                         
     3  0  0.50       -14.0086   2.0000                                         
     3  1  0.50        -5.6037   3.0000                                         
     3  2  1.50        -6.8029   0.0000                                         
     4  3  2.50        -1.3606   0.0000                                         
   Description                                                                  
     l       E           TYP  RCUT    TYP  RCUT                                 
     0    -14.0086211     23  1.900                                             
     0    102.0436950     23  1.900                                             
     1     -5.6037292     23  1.900                                             
     1    102.0436950     23  1.900                                             
     2     -8.1634956     23  2.000                                             
     2     81.6349560     23  2.000                                             
     3     27.2116520     23  2.000                                             
  local pseudopotential read in
  partial core-charges read in
  partial kinetic energy density read in
  kinetic energy density of atom read in
  atomic valenz-charges read in
  non local Contribution for L=           0  read in
    real space projection operators read in
  non local Contribution for L=           0  read in
    real space projection operators read in
  non local Contribution for L=           1  read in
    real space projection operators read in
  non local Contribution for L=           1  read in
    real space projection operators read in
  non local Contribution for L=           2  read in
    real space projection operators read in
  non local Contribution for L=           2  read in
    real space projection operators read in
    PAW grid and wavefunctions read in
 
   number of l-projection  operators is LMAX  =           6
   number of lm-projection operators is LMMAX =          18
 

 ----------------------------------------------------------------------------- 
|                                                                             |
|  ADVICE TO THIS USER RUNNING 'VASP/VAMP'   (HEAR YOUR MASTER'S VOICE ...):  |
|                                                                             |
|      You have a (more or less) 'large supercell' and for larger cells       |
|      it might be more efficient to use real space projection opertators     |
|      So try LREAL= Auto  in the INCAR   file.                               |
|      Mind:          For very  accurate calculation you might also keep the  |
|      reciprocal projection scheme          (i.e. LREAL=.FALSE.)             |
|                                                                             |
 ----------------------------------------------------------------------------- 

  PAW In_d_GW 15Mar2013                 :
 energy of atom  1       EATOM=-1579.9794
 kinetic energy error for atom=    0.0027 (will be added to EATOM!!)
  PAW P_GW 19Mar2012                    :
 energy of atom  2       EATOM= -176.5121
 kinetic energy error for atom=    0.0005 (will be added to EATOM!!)
 
 
 POSCAR: Initial State for  iIn_0_110pCs_tdA_sc3k
  positions in direct lattice
  No initial velocities read in
 exchange correlation table for  LEXCH =        2
   RHO(1)=    0.500       N(1)  =     2000
   RHO(2)=  100.500       N(2)  =     4000
 


--------------------------------------------------------------------------------------------------------


 ion  position               nearest neighbor table
   1  0.587  0.587  0.587- 116 2.51 111 2.62 112 2.62 110 2.62 109 2.64
   2  0.587  0.413  0.413- 120 2.51 113 2.62 114 2.62 110 2.62 109 2.64
   3  0.413  0.587  0.413- 121 2.51 113 2.62 115 2.62 111 2.62 109 2.64
   4  0.413  0.413  0.587- 122 2.51 114 2.62 115 2.62 112 2.62 109 2.64
   5  0.752  0.584  0.416- 110 2.53 130 2.53 124 2.53 117 2.54
   6  0.752  0.416  0.584- 110 2.53 125 2.53 131 2.53 118 2.54
   7  0.584  0.752  0.416- 111 2.53 126 2.53 132 2.53 117 2.54
   8  0.584  0.416  0.752- 112 2.53 127 2.53 134 2.53 118 2.54
   9  0.416  0.752  0.584- 111 2.53 128 2.53 133 2.53 119 2.54
  10  0.416  0.584  0.752- 112 2.53 135 2.53 129 2.53 119 2.54
  11  0.584  0.584  0.248- 113 2.53 136 2.53 137 2.53 117 2.54
  12  0.584  0.248  0.584- 114 2.53 138 2.53 139 2.53 118 2.54
  13  0.248  0.584  0.584- 115 2.53 141 2.53 140 2.53 119 2.54
  14  0.416  0.416  0.248- 113 2.53 144 2.53 142 2.53 123 2.54
  15  0.416  0.248  0.416- 114 2.53 143 2.53 145 2.53 123 2.54
  16  0.248  0.416  0.416- 115 2.53 146 2.53 147 2.53 123 2.54
  17  0.751  0.751  0.583- 148 2.53 126 2.53 124 2.53 116 2.54
  18  0.751  0.583  0.751- 149 2.53 127 2.53 125 2.53 116 2.54
  19  0.583  0.751  0.751- 150 2.53 129 2.53 128 2.53 116 2.54
  20  0.751  0.417  0.249- 162 2.53 136 2.53 130 2.53 120 2.54
  21  0.751  0.249  0.417- 164 2.53 138 2.53 131 2.53 120 2.54
  22  0.417  0.751  0.249- 165 2.53 137 2.53 132 2.53 121 2.54
  23  0.249  0.751  0.417- 166 2.53 140 2.53 133 2.53 121 2.54
  24  0.417  0.249  0.751- 167 2.53 139 2.53 134 2.53 122 2.54
  25  0.249  0.417  0.751- 168 2.53 141 2.53 135 2.53 122 2.54
  26  0.583  0.249  0.249- 169 2.53 143 2.53 142 2.53 120 2.54
  27  0.249  0.583  0.249- 170 2.53 146 2.53 144 2.53 121 2.54
  28  0.249  0.249  0.583- 171 2.53 147 2.53 145 2.53 122 2.54
  29  0.917  0.583  0.583- 175 2.53 125 2.53 124 2.53 151 2.54
  30  0.583  0.917  0.583- 176 2.53 128 2.53 126 2.53 154 2.54
  31  0.583  0.583  0.917- 177 2.53 129 2.53 127 2.53 155 2.54
  32  0.917  0.417  0.417- 183 2.53 131 2.53 130 2.53 151 2.54
  33  0.750  0.750  0.250- 117 2.53 152 2.53 157 2.53 158 2.53
  34  0.750  0.250  0.750- 118 2.53 159 2.53 153 2.53 160 2.53
  35  0.417  0.917  0.417- 185 2.53 133 2.53 132 2.53 154 2.54
  36  0.417  0.417  0.917- 186 2.53 135 2.53 134 2.53 155 2.54
  37  0.250  0.750  0.750- 119 2.53 161 2.53 156 2.53 163 2.53
  38  0.583  0.417  0.083- 181 2.53 142 2.53 136 2.53 155 2.54
  39  0.417  0.583  0.083- 184 2.53 144 2.53 137 2.53 155 2.54
  40  0.583  0.083  0.417- 180 2.53 143 2.53 138 2.53 154 2.54
  41  0.417  0.083  0.583- 182 2.53 145 2.53 139 2.53 154 2.54
  42  0.083  0.583  0.417- 178 2.53 146 2.53 140 2.53 151 2.54
  43  0.083  0.417  0.583- 179 2.53 147 2.53 141 2.53 151 2.54
  44  0.250  0.250  0.250- 123 2.53 174 2.53 173 2.53 172 2.53
  45  0.917  0.751  0.416- 187 2.53 124 2.53 152 2.53 178 2.53
  46  0.751  0.917  0.416- 188 2.53 126 2.53 152 2.53 180 2.53
  47  0.917  0.416  0.751- 189 2.53 125 2.53 153 2.53 179 2.53
  48  0.751  0.416  0.917- 190 2.53 127 2.53 153 2.53 181 2.53
  49  0.416  0.917  0.751- 191 2.53 128 2.53 156 2.53 182 2.53
  50  0.416  0.751  0.917- 192 2.53 129 2.53 156 2.53 184 2.53
  51  0.917  0.584  0.249- 193 2.53 130 2.53 157 2.53 178 2.53
  52  0.917  0.249  0.584- 194 2.53 131 2.53 159 2.53 179 2.53
  53  0.584  0.917  0.249- 195 2.53 132 2.53 158 2.53 180 2.53
  54  0.584  0.249  0.917- 197 2.53 134 2.53 160 2.53 181 2.53
  55  0.249  0.917  0.584- 196 2.53 133 2.53 161 2.53 182 2.53
  56  0.249  0.584  0.917- 198 2.53 135 2.53 163 2.53 184 2.53
  57  0.751  0.584  0.083- 190 2.53 136 2.53 157 2.53 177 2.53
  58  0.584  0.751  0.083- 192 2.53 137 2.53 158 2.53 177 2.53
  59  0.751  0.083  0.584- 188 2.53 138 2.53 159 2.53 176 2.53
  60  0.584  0.083  0.751- 191 2.53 139 2.53 160 2.53 176 2.53
  61  0.083  0.751  0.584- 187 2.53 140 2.53 161 2.53 175 2.53
  62  0.083  0.584  0.751- 189 2.53 141 2.53 163 2.53 175 2.53
  63  0.416  0.249  0.083- 197 2.53 142 2.53 172 2.53 186 2.53
  64  0.416  0.083  0.249- 195 2.53 143 2.53 172 2.53 185 2.53
  65  0.249  0.416  0.083- 198 2.53 144 2.53 173 2.53 186 2.53
  66  0.249  0.083  0.416- 196 2.53 145 2.53 174 2.53 185 2.53
  67  0.083  0.416  0.249- 193 2.53 146 2.53 173 2.53 183 2.53
  68  0.083  0.249  0.416- 194 2.53 147 2.53 174 2.53 183 2.53
  69  0.917  0.750  0.750- 199 2.53 175 2.53 148 2.53 149 2.53
  70  0.750  0.917  0.750- 200 2.53 176 2.53 150 2.53 148 2.53
  71  0.750  0.750  0.917- 201 2.53 177 2.53 149 2.53 150 2.53
  72  0.917  0.250  0.250- 208 2.53 183 2.53 162 2.53 164 2.53
  73  0.250  0.917  0.250- 209 2.53 185 2.53 165 2.53 166 2.53
  74  0.250  0.250  0.917- 210 2.53 186 2.53 167 2.53 168 2.53
  75  0.750  0.250  0.083- 205 2.53 181 2.53 162 2.53 169 2.53
  76  0.750  0.083  0.250- 203 2.53 180 2.53 169 2.53 164 2.53
  77  0.250  0.750  0.083- 207 2.53 184 2.53 165 2.53 170 2.53
  78  0.083  0.750  0.250- 202 2.53 178 2.53 166 2.53 170 2.53
  79  0.250  0.083  0.750- 206 2.53 182 2.53 167 2.53 171 2.53
  80  0.083  0.250  0.750- 204 2.53 179 2.53 168 2.53 171 2.53
  81  0.917  0.917  0.583- 187 2.53 188 2.53 211 2.53 148 2.53
  82  0.917  0.583  0.917- 189 2.53 190 2.53 212 2.53 149 2.53
  83  0.583  0.917  0.917- 191 2.53 192 2.53 213 2.53 150 2.53
  84  0.917  0.417  0.083- 190 2.53 193 2.53 215 2.53 162 2.53
  85  0.917  0.083  0.417- 188 2.53 194 2.53 214 2.53 164 2.53
  86  0.417  0.917  0.083- 192 2.53 195 2.53 216 2.53 165 2.53
  87  0.083  0.917  0.417- 187 2.53 196 2.53 214 2.53 166 2.53
  88  0.417  0.083  0.917- 191 2.53 197 2.53 216 2.53 167 2.53
  89  0.083  0.417  0.917- 189 2.53 198 2.53 215 2.53 168 2.53
  90  0.583  0.083  0.083- 195 2.53 197 2.53 213 2.53 169 2.53
  91  0.083  0.583  0.083- 193 2.53 198 2.53 212 2.53 170 2.53
  92  0.083  0.083  0.583- 194 2.53 196 2.53 211 2.53 171 2.53
  93  0.917  0.917  0.250- 202 2.53 203 2.53 152 2.53 214 2.53
  94  0.917  0.250  0.917- 204 2.53 205 2.53 153 2.53 215 2.53
  95  0.917  0.750  0.083- 201 2.53 202 2.53 157 2.53 212 2.53
  96  0.750  0.917  0.083- 201 2.53 203 2.53 158 2.53 213 2.53
  97  0.250  0.917  0.917- 206 2.53 207 2.53 156 2.53 216 2.53
  98  0.917  0.083  0.750- 200 2.53 204 2.53 159 2.53 211 2.53
  99  0.750  0.083  0.917- 200 2.53 205 2.53 160 2.53 213 2.53
 100  0.083  0.917  0.750- 199 2.53 206 2.53 161 2.53 211 2.53
 101  0.083  0.750  0.917- 199 2.53 207 2.53 163 2.53 212 2.53
 102  0.250  0.083  0.083- 209 2.53 210 2.53 172 2.53 216 2.53
 103  0.083  0.250  0.083- 208 2.53 210 2.53 173 2.53 215 2.53
 104  0.083  0.083  0.250- 208 2.53 209 2.53 174 2.53 214 2.53
 105  0.917  0.917  0.917- 199 2.53 200 2.53 201 2.53 217 2.53
 106  0.917  0.083  0.083- 203 2.53 205 2.53 208 2.53 217 2.53
 107  0.083  0.917  0.083- 202 2.53 207 2.53 209 2.53 217 2.53
 108  0.083  0.083  0.917- 204 2.53 206 2.53 210 2.53 217 2.53
 109  0.500  0.500  0.500-   1 2.64   2 2.64   3 2.64   4 2.64
 110  0.671  0.500  0.500-   5 2.53   6 2.53   1 2.62   2 2.62
 111  0.500  0.671  0.500-   7 2.53   9 2.53   1 2.62   3 2.62
 112  0.500  0.500  0.671-   8 2.53  10 2.53   1 2.62   4 2.62
 113  0.500  0.500  0.329-  11 2.53  14 2.53   2 2.62   3 2.62
 114  0.500  0.329  0.500-  12 2.53  15 2.53   2 2.62   4 2.62
 115  0.329  0.500  0.500-  13 2.53  16 2.53   3 2.62   4 2.62
 116  0.669  0.669  0.669-   1 2.51  17 2.54  18 2.54  19 2.54
 117  0.667  0.667  0.333-  33 2.53   7 2.54  11 2.54   5 2.54
 118  0.667  0.333  0.667-  34 2.53   8 2.54  12 2.54   6 2.54
 119  0.333  0.667  0.667-  37 2.53  10 2.54  13 2.54   9 2.54
 120  0.669  0.331  0.331-   2 2.51  20 2.54  21 2.54  26 2.54
 121  0.331  0.669  0.331-   3 2.51  22 2.54  23 2.54  27 2.54
 122  0.331  0.331  0.669-   4 2.51  24 2.54  25 2.54  28 2.54
 123  0.333  0.333  0.333-  44 2.53  15 2.54  16 2.54  14 2.54
 124  0.834  0.667  0.500-  45 2.53   5 2.53  17 2.53  29 2.53
 125  0.834  0.500  0.667-  47 2.53   6 2.53  18 2.53  29 2.53
 126  0.667  0.834  0.500-  46 2.53   7 2.53  17 2.53  30 2.53
 127  0.667  0.500  0.834-  48 2.53   8 2.53  18 2.53  31 2.53
 128  0.500  0.834  0.667-  49 2.53   9 2.53  19 2.53  30 2.53
 129  0.500  0.667  0.834-  50 2.53  10 2.53  19 2.53  31 2.53
 130  0.834  0.500  0.333-  51 2.53   5 2.53  20 2.53  32 2.53
 131  0.834  0.333  0.500-  52 2.53   6 2.53  21 2.53  32 2.53
 132  0.500  0.834  0.333-  53 2.53   7 2.53  22 2.53  35 2.53
 133  0.333  0.834  0.500-  55 2.53   9 2.53  23 2.53  35 2.53
 134  0.500  0.333  0.834-  54 2.53   8 2.53  24 2.53  36 2.53
 135  0.333  0.500  0.834-  56 2.53  10 2.53  25 2.53  36 2.53
 136  0.667  0.500  0.166-  57 2.53  11 2.53  20 2.53  38 2.53
 137  0.500  0.667  0.166-  58 2.53  11 2.53  22 2.53  39 2.53
 138  0.667  0.166  0.500-  59 2.53  12 2.53  21 2.53  40 2.53
 139  0.500  0.166  0.667-  60 2.53  12 2.53  24 2.53  41 2.53
 140  0.166  0.667  0.500-  61 2.53  13 2.53  23 2.53  42 2.53
 141  0.166  0.500  0.667-  62 2.53  13 2.53  25 2.53  43 2.53
 142  0.500  0.333  0.166-  63 2.53  14 2.53  26 2.53  38 2.53
 143  0.500  0.166  0.333-  64 2.53  15 2.53  26 2.53  40 2.53
 144  0.333  0.500  0.166-  65 2.53  14 2.53  27 2.53  39 2.53
 145  0.333  0.166  0.500-  66 2.53  15 2.53  28 2.53  41 2.53
 146  0.166  0.500  0.333-  67 2.53  16 2.53  27 2.53  42 2.53
 147  0.166  0.333  0.500-  68 2.53  16 2.53  28 2.53  43 2.53
 148  0.834  0.834  0.667-  17 2.53  81 2.53  69 2.53  70 2.53
 149  0.834  0.667  0.834-  18 2.53  82 2.53  71 2.53  69 2.53
 150  0.667  0.834  0.834-  19 2.53  83 2.53  71 2.53  70 2.53
 151  0.000  0.500  0.500-  29 2.54  32 2.54  42 2.54  43 2.54
 152  0.833  0.833  0.333-  93 2.53  46 2.53  45 2.53  33 2.53
 153  0.833  0.333  0.833-  94 2.53  48 2.53  47 2.53  34 2.53
 154  0.500  0.000  0.500-  30 2.54  35 2.54  40 2.54  41 2.54
 155  0.500  0.500  0.000-  31 2.54  36 2.54  38 2.54  39 2.54
 156  0.333  0.833  0.833-  97 2.53  50 2.53  49 2.53  37 2.53
 157  0.833  0.667  0.167-  95 2.53  57 2.53  51 2.53  33 2.53
 158  0.667  0.833  0.167-  96 2.53  58 2.53  53 2.53  33 2.53
 159  0.833  0.167  0.667-  98 2.53  59 2.53  52 2.53  34 2.53
 160  0.667  0.167  0.833-  99 2.53  60 2.53  54 2.53  34 2.53
 161  0.167  0.833  0.667- 100 2.53  61 2.53  55 2.53  37 2.53
 162  0.834  0.333  0.166-  20 2.53  84 2.53  75 2.53  72 2.53
 163  0.167  0.667  0.833- 101 2.53  62 2.53  56 2.53  37 2.53
 164  0.834  0.166  0.333-  21 2.53  85 2.53  72 2.53  76 2.53
 165  0.333  0.834  0.166-  22 2.53  86 2.53  77 2.53  73 2.53
 166  0.166  0.834  0.333-  23 2.53  87 2.53  78 2.53  73 2.53
 167  0.333  0.166  0.834-  24 2.53  88 2.53  79 2.53  74 2.53
 168  0.166  0.333  0.834-  25 2.53  89 2.53  80 2.53  74 2.53
 169  0.667  0.166  0.166-  26 2.53  90 2.53  76 2.53  75 2.53
 170  0.166  0.667  0.166-  27 2.53  91 2.53  78 2.53  77 2.53
 171  0.166  0.166  0.667-  28 2.53  92 2.53  80 2.53  79 2.53
 172  0.333  0.167  0.167- 102 2.53  64 2.53  63 2.53  44 2.53
 173  0.167  0.333  0.167- 103 2.53  67 2.53  65 2.53  44 2.53
 174  0.167  0.167  0.333- 104 2.53  68 2.53  66 2.53  44 2.53
 175  0.000  0.667  0.667-  69 2.53  29 2.53  61 2.53  62 2.53
 176  0.667  0.000  0.667-  70 2.53  30 2.53  60 2.53  59 2.53
 177  0.667  0.667  0.000-  71 2.53  31 2.53  58 2.53  57 2.53
 178  1.000  0.667  0.333-  78 2.53  42 2.53  45 2.53  51 2.53
 179  1.000  0.333  0.667-  80 2.53  43 2.53  52 2.53  47 2.53
 180  0.667  1.000  0.333-  76 2.53  40 2.53  53 2.53  46 2.53
 181  0.667  0.333  1.000-  75 2.53  38 2.53  54 2.53  48 2.53
 182  0.333  1.000  0.667-  79 2.53  41 2.53  55 2.53  49 2.53
 183  0.000  0.333  0.333-  72 2.53  32 2.53  68 2.53  67 2.53
 184  0.333  0.667  1.000-  77 2.53  39 2.53  50 2.53  56 2.53
 185  0.333  0.000  0.333-  73 2.53  35 2.53  66 2.53  64 2.53
 186  0.333  0.333  0.000-  74 2.53  36 2.53  63 2.53  65 2.53
 187  0.000  0.834  0.500-  45 2.53  61 2.53  81 2.53  87 2.53
 188  0.834  0.000  0.500-  46 2.53  59 2.53  81 2.53  85 2.53
 189  0.000  0.500  0.834-  47 2.53  62 2.53  82 2.53  89 2.53
 190  0.834  0.500  0.000-  48 2.53  57 2.53  82 2.53  84 2.53
 191  0.500  0.000  0.834-  49 2.53  60 2.53  83 2.53  88 2.53
 192  0.500  0.834  0.000-  50 2.53  58 2.53  83 2.53  86 2.53
 193  0.000  0.500  0.166-  51 2.53  67 2.53  84 2.53  91 2.53
 194  0.000  0.166  0.500-  52 2.53  68 2.53  85 2.53  92 2.53
 195  0.500  0.000  0.166-  53 2.53  64 2.53  86 2.53  90 2.53
 196  0.166  0.000  0.500-  55 2.53  66 2.53  87 2.53  92 2.53
 197  0.500  0.166  0.000-  54 2.53  63 2.53  88 2.53  90 2.53
 198  0.166  0.500  0.000-  56 2.53  65 2.53  89 2.53  91 2.53
 199  0.000  0.833  0.833-  69 2.53 100 2.53 101 2.53 105 2.53
 200  0.833  0.000  0.833-  70 2.53  98 2.53  99 2.53 105 2.53
 201  0.833  0.833  0.000-  71 2.53  95 2.53  96 2.53 105 2.53
 202  1.000  0.833  0.167-  78 2.53  93 2.53  95 2.53 107 2.53
 203  0.833  1.000  0.167-  76 2.53  93 2.53  96 2.53 106 2.53
 204  1.000  0.167  0.833-  80 2.53  94 2.53  98 2.53 108 2.53
 205  0.833  0.167  1.000-  75 2.53  94 2.53  99 2.53 106 2.53
 206  0.167  1.000  0.833-  79 2.53  97 2.53 100 2.53 108 2.53
 207  0.167  0.833  1.000-  77 2.53  97 2.53 101 2.53 107 2.53
 208  0.000  0.167  0.167-  72 2.53 103 2.53 104 2.53 106 2.53
 209  0.167  0.000  0.167-  73 2.53 102 2.53 104 2.53 107 2.53
 210  0.167  0.167  0.000-  74 2.53 102 2.53 103 2.53 108 2.53
 211  0.000  0.000  0.667-  81 2.53  92 2.53  98 2.53 100 2.53
 212  0.000  0.667  0.000-  82 2.53  91 2.53  95 2.53 101 2.53
 213  0.667  0.000  0.000-  83 2.53  90 2.53  96 2.53  99 2.53
 214  0.000  0.000  0.333-  85 2.53  87 2.53  93 2.53 104 2.53
 215  0.000  0.333  0.000-  84 2.53  89 2.53  94 2.53 103 2.53
 216  0.333  0.000  0.000-  86 2.53  88 2.53  97 2.53 102 2.53
 217  0.000  0.000  0.000- 105 2.53 106 2.53 107 2.53 108 2.53
 
  LATTYP: Found a simple cubic cell.
 ALAT       =    17.5612749176
  
  Lattice vectors:
  
 A1 = (  17.5612749176,   0.0000000000,   0.0000000000)
 A2 = (   0.0000000000,  17.5612749176,   0.0000000000)
 A3 = (   0.0000000000,   0.0000000000,  17.5612749176)


Analysis of symmetry for initial positions (statically):
=====================================================================
 Subroutine PRICEL returns:
 Original cell was already a primitive cell.
 

 Routine SETGRP: Setting up the symmetry group for a 
 simple cubic supercell.


 Subroutine GETGRP returns: Found 24 space group operations
 (whereof 24 operations were pure point group operations)
 out of a pool of 48 trial point group operations.


The static configuration has the point symmetry T_d .


Analysis of symmetry for dynamics (positions and initial velocities):
=====================================================================
 Subroutine PRICEL returns:
 Original cell was already a primitive cell.
 

 Routine SETGRP: Setting up the symmetry group for a 
 simple cubic supercell.


 Subroutine GETGRP returns: Found 24 space group operations
 (whereof 24 operations were pure point group operations)
 out of a pool of 48 trial point group operations.


The dynamic configuration has the point symmetry T_d .


 Subroutine INISYM returns: Found 24 space group operations
 (whereof 24 operations are pure point group operations),
 and found     1 'primitive' translations

 
 
 KPOINTS: K-Points                                

Automatic generation of k-mesh.
Space group operators:
 irot       det(A)        alpha          n_x          n_y          n_z        tau_x        tau_y        tau_z
    1     1.000000     0.000000     1.000000     0.000000     0.000000     0.000000     0.000000     0.000000
    2     1.000000   120.000000    -0.577350    -0.577350    -0.577350     0.000000     0.000000     0.000000
    3     1.000000   120.000000     0.577350     0.577350     0.577350     0.000000     0.000000     0.000000
    4    -1.000000    90.000000     0.000000     0.000000    -1.000000     0.000000     0.000000     0.000000
    5    -1.000000   180.000000     0.000000     0.707107     0.707107     0.000000     0.000000     0.000000
    6    -1.000000    90.000000     0.000000     1.000000     0.000000     0.000000     0.000000     0.000000
    7     1.000000   180.000000     0.000000     0.000000     1.000000     0.000000     0.000000     0.000000
    8     1.000000   120.000000    -0.577350     0.577350     0.577350     0.000000     0.000000     0.000000
    9     1.000000   120.000000    -0.577350     0.577350    -0.577350     0.000000     0.000000     0.000000
   10    -1.000000    90.000000     0.000000     0.000000     1.000000     0.000000     0.000000     0.000000
   11    -1.000000    90.000000    -1.000000     0.000000     0.000000     0.000000     0.000000     0.000000
   12    -1.000000   180.000000     0.707107     0.000000     0.707107     0.000000     0.000000     0.000000
   13     1.000000   120.000000     0.577350    -0.577350     0.577350     0.000000     0.000000     0.000000
   14     1.000000   120.000000    -0.577350    -0.577350     0.577350     0.000000     0.000000     0.000000
   15     1.000000   180.000000     1.000000     0.000000     0.000000     0.000000     0.000000     0.000000
   16    -1.000000    90.000000     0.000000    -1.000000     0.000000     0.000000     0.000000     0.000000
   17    -1.000000   180.000000     0.707107     0.707107     0.000000     0.000000     0.000000     0.000000
   18    -1.000000    90.000000     1.000000     0.000000     0.000000     0.000000     0.000000     0.000000
   19     1.000000   120.000000     0.577350    -0.577350    -0.577350     0.000000     0.000000     0.000000
   20     1.000000   180.000000     0.000000     1.000000     0.000000     0.000000     0.000000     0.000000
   21     1.000000   120.000000     0.577350     0.577350    -0.577350     0.000000     0.000000     0.000000
   22    -1.000000   180.000000     0.000000    -0.707107     0.707107     0.000000     0.000000     0.000000
   23    -1.000000   180.000000     0.707107    -0.707107     0.000000     0.000000     0.000000     0.000000
   24    -1.000000   180.000000     0.707107     0.000000    -0.707107     0.000000     0.000000     0.000000
 
 Subroutine IBZKPT returns following result:
 ===========================================
 
 Found      4 irreducible k-points:
 
 Following reciprocal coordinates:
            Coordinates               Weight
  0.000000  0.000000  0.000000      1.000000
  0.333333  0.000000  0.000000      6.000000
  0.333333  0.333333  0.000000     12.000000
  0.333333  0.333333  0.333333      8.000000
 
 Following cartesian coordinates:
            Coordinates               Weight
  0.000000  0.000000  0.000000      1.000000
  0.018981  0.000000  0.000000      6.000000
  0.018981  0.018981  0.000000     12.000000
  0.018981  0.018981  0.018981      8.000000
 


--------------------------------------------------------------------------------------------------------




 Dimension of arrays:
   k-points           NKPTS =      4   k-points in BZ     NKDIM =      4   number of bands    NBANDS=   1728
   number of dos      NEDOS =    301   number of ions     NIONS =    217
   non local maximal  LDIM  =      9   non local SUM 2l+1 LMDIM =     37
   total plane-waves  NPLWV = ******
   max r-space proj   IRMAX =      1   max aug-charges    IRDMAX=   7705
   dimension x,y,z NGX =   150 NGY =  150 NGZ =  150
   dimension x,y,z NGXF=   196 NGYF=  196 NGZF=  196
   support grid    NGXF=   196 NGYF=  196 NGZF=  196
   ions per type =             108 109
   NGX,Y,Z   is equivalent  to a cutoff of  14.20, 14.20, 14.20 a.u.
   NGXF,Y,Z  is equivalent  to a cutoff of  18.55, 18.55, 18.55 a.u.

 SYSTEM =  unknown system                          
 POSCAR =  Initial State for  iIn_0_110pCs_tdA_sc3k

 Startparameter for this run:
   NWRITE =      2    write-flag & timer
   PREC   = high      normal or accurate (medium, high low for compatibility)
   ISTART =      0    job   : 0-new  1-cont  2-samecut
   ICHARG =      2    charge: 1-file 2-atom 10-const
   ISPIN  =      1    spin polarized calculation?
   LNONCOLLINEAR =      F non collinear calculations
   LSORBIT =      F    spin-orbit coupling
   INIWAV =      1    electr: 0-lowe 1-rand  2-diag
   LASPH  =      F    aspherical Exc in radial PAW
   METAGGA=      F    non-selfconsistent MetaGGA calc.

 Electronic Relaxation 1
   ENCUT  =  650.0 eV  47.77 Ry    6.91 a.u.  36.51 36.51 36.51*2*pi/ulx,y,z
   ENINI  =  650.0     initial cutoff
   ENAUG  =  662.6 eV  augmentation charge cutoff
   NELM   =     60;   NELMIN=  2; NELMDL= -5     # of ELM steps 
   EDIFF  = 0.1E-05   stopping-criterion for ELM
   LREAL  =      F    real-space projection
   NLSPLINE    = F    spline interpolate recip. space projectors
   LCOMPAT=      F    compatible to vasp.4.4
   GGA_COMPAT  = T    GGA compatible to vasp.4.4-vasp.4.6
   LMAXPAW     = -100 max onsite density
   LMAXMIX     =    2 max onsite mixed and CHGCAR
   VOSKOWN=      0    Vosko Wilk Nusair interpolation
   ROPT   =    0.00000   0.00000
 Ionic relaxation
   EDIFFG = 0.1E-03   stopping-criterion for IOM
   NSW    =    100    number of steps for IOM
   NBLOCK =      1;   KBLOCK =      1    inner block; outer block 
   IBRION =      2    ionic relax: 0-MD 1-quasi-New 2-CG
   NFREE  =      0    steps in history (QN), initial steepest desc. (CG)
   ISIF   =      2    stress and relaxation
   IWAVPR =     11    prediction:  0-non 1-charg 2-wave 3-comb
   ISYM   =      2    0-nonsym 1-usesym 2-fastsym
   LCORR  =      T    Harris-Foulkes like correction to forces

   POTIM  = 0.5000    time-step for ionic-motion
   TEIN   =    0.0    initial temperature
   TEBEG  = 3500.0;   TEEND  =3500.0 temperature during run
   SMASS  =  -3.00    Nose mass-parameter (am)
   estimated Nose-frequenzy (Omega)   =  0.10E-29 period in steps =****** mass=  -0.705E-26a.u.
   SCALEE = 1.0000    scale energy and forces
   NPACO  =    256;   APACO  = 16.0  distance and # of slots for P.C.
   PSTRESS=   -7.8 pullay stress

  Mass of Ions in am
   POMASS = 114.82 30.97
  Ionic Valenz
   ZVAL   =  13.00  5.00
  Atomic Wigner-Seitz radii
   RWIGS  =  -1.00 -1.00
  virtual crystal weights 
   VCA    =   1.00  1.00
   NELECT =    1949.0000    total number of electrons
   NUPDOWN=      -1.0000    fix difference up-down

 DOS related values:
   EMIN   =  10.00;   EMAX   =-10.00  energy-range for DOS
   EFERMI =   0.00
   ISMEAR =     0;   SIGMA  =   0.10  broadening in eV -4-tet -1-fermi 0-gaus

 Electronic relaxation 2 (details)
   IALGO  =     38    algorithm
   LDIAG  =      T    sub-space diagonalisation (order eigenvalues)
   LSUBROT=      F    optimize rotation matrix (better conditioning)
   TURBO    =      0    0=normal 1=particle mesh
   IRESTART =      0    0=no restart 2=restart with 2 vectors
   NREBOOT  =      0    no. of reboots
   NMIN     =      0    reboot dimension
   EREF     =   0.00    reference energy to select bands
   IMIX   =      4    mixing-type and parameters
     AMIX     =   0.40;   BMIX     =  1.00
     AMIX_MAG =   1.60;   BMIX_MAG =  1.00
     AMIN     =   0.10
     WC   =   100.;   INIMIX=   1;  MIXPRE=   1;  MAXMIX= -45

 Intra band minimization:
   WEIMIN = 0.0010     energy-eigenvalue tresh-hold
   EBREAK =  0.14E-09  absolut break condition
   DEPER  =   0.30     relativ break condition  

   TIME   =   0.40     timestep for ELM

  volume/ion in A,a.u.               =      24.96       168.42
  Fermi-wavevector in a.u.,A,eV,Ry     =   1.164455  2.200501 18.448896  1.355956
  Thomas-Fermi vector in A             =   2.300993
 
 Write flags
   LWAVE        =      T    write WAVECAR
   LDOWNSAMPLE  =      F    k-point downsampling of WAVECAR
   LCHARG       =      T    write CHGCAR
   LVTOT        =      F    write LOCPOT, total local potential
   LVHAR        =      F    write LOCPOT, Hartree potential only
   LELF         =      F    write electronic localiz. function (ELF)
   LORBIT       =      0    0 simple, 1 ext, 2 COOP (PROOUT), +10 PAW based schemes


 Dipole corrections
   LMONO  =      F    monopole corrections only (constant potential shift)
   LDIPOL =      F    correct potential (dipole corrections)
   IDIPOL =      0    1-x, 2-y, 3-z, 4-all directions 
   EPSILON=  1.0000000 bulk dielectric constant

 Exchange correlation treatment:
   GGA     =    --    GGA type
   LEXCH   =     2    internal setting for exchange type
   VOSKOWN=      0    Vosko Wilk Nusair interpolation
   LHFCALC =     F    Hartree Fock is set to
   LHFONE  =     F    Hartree Fock one center treatment
   AEXX    =    0.0000 exact exchange contribution

 Linear response parameters
   LEPSILON=     F    determine dielectric tensor
   LRPA    =     F    only Hartree local field effects (RPA)
   LNABLA  =     F    use nabla operator in PAW spheres
   LVEL    =     F    velocity operator in full k-point grid
   LINTERFAST=   F  fast interpolation
   KINTER  =     0    interpolate to denser k-point grid
   CSHIFT  =0.1000    complex shift for real part using Kramers Kronig
   OMEGAMAX=  -1.0    maximum frequency
   DEG_THRESHOLD= 0.2000000E-02 threshold for treating states as degnerate
   RTIME   =   -0.100 relaxation time in fs
  (WPLASMAI=    0.000 imaginary part of plasma frequency in eV, 0.658/RTIME)
   DFIELD  = 0.0000000 0.0000000 0.0000000 field for delta impulse in time
 
 Orbital magnetization related:
   ORBITALMAG=     F  switch on orbital magnetization
   LCHIMAG   =     F  perturbation theory with respect to B field
   DQ        =  0.001000  dq finite difference perturbation B field
   LLRAUG    =     F  two centre corrections for induced B field



--------------------------------------------------------------------------------------------------------


 conjugate gradient relaxation of ions
 charge density and potential will be updated during run
 non-spin polarized calculation
 Variant of blocked Davidson
 Davidson routine will perform the subspace rotation
 perform sub-space diagonalisation
    after iterative eigenvector-optimisation
 modified Broyden-mixing scheme, WC =      100.0
 initial mixing is a Kerker type mixing with AMIX =  0.4000 and BMIX =      1.0000
 Hartree-type preconditioning will be used
 using additional bands          753
 reciprocal scheme for non local part
 use partial core corrections
 calculate Harris-corrections to forces 
   (improved forces if not selfconsistent)
 use of overlap-Matrix (Vanderbilt PP)
 Gauss-broadening in eV      SIGMA  =   0.10


--------------------------------------------------------------------------------------------------------


  energy-cutoff  :      650.00
  volume of cell :     5415.87
      direct lattice vectors                 reciprocal lattice vectors
    17.561274918  0.000000000  0.000000000     0.056943474  0.000000000  0.000000000
     0.000000000 17.561274918  0.000000000     0.000000000  0.056943474  0.000000000
     0.000000000  0.000000000 17.561274918     0.000000000  0.000000000  0.056943474

  length of vectors
    17.561274918 17.561274918 17.561274918     0.056943474  0.056943474  0.056943474


 
 k-points in units of 2pi/SCALE and weight: K-Points                                
   0.00000000  0.00000000  0.00000000       0.037
   0.01898116  0.00000000  0.00000000       0.222
   0.01898116  0.01898116  0.00000000       0.444
   0.01898116  0.01898116  0.01898116       0.296
 
 k-points in reciprocal lattice and weights: K-Points                                
   0.00000000  0.00000000  0.00000000       0.037
   0.33333333  0.00000000  0.00000000       0.222
   0.33333333  0.33333333  0.00000000       0.444
   0.33333333  0.33333333  0.33333333       0.296
 
 position of ions in fractional coordinates (direct lattice) 
   0.58670194  0.58670194  0.58670194
   0.58670194  0.41329806  0.41329806
   0.41329806  0.58670194  0.41329806
   0.41329806  0.41329806  0.58670194
   0.75211794  0.58415461  0.41584539
   0.75211794  0.41584539  0.58415461
   0.58415461  0.75211794  0.41584539
   0.58415461  0.41584539  0.75211794
   0.41584539  0.75211794  0.58415461
   0.41584539  0.58415461  0.75211794
   0.58415461  0.58415461  0.24788206
   0.58415461  0.24788206  0.58415461
   0.24788206  0.58415461  0.58415461
   0.41584539  0.41584539  0.24788206
   0.41584539  0.24788206  0.41584539
   0.24788206  0.41584539  0.41584539
   0.75136641  0.75136641  0.58299147
   0.75136641  0.58299147  0.75136641
   0.58299147  0.75136641  0.75136641
   0.75136641  0.41700853  0.24863359
   0.75136641  0.24863359  0.41700853
   0.41700853  0.75136641  0.24863359
   0.24863359  0.75136641  0.41700853
   0.41700853  0.24863359  0.75136641
   0.24863359  0.41700853  0.75136641
   0.58299147  0.24863359  0.24863359
   0.24863359  0.58299147  0.24863359
   0.24863359  0.24863359  0.58299147
   0.91682033  0.58343711  0.58343711
   0.58343711  0.91682033  0.58343711
   0.58343711  0.58343711  0.91682033
   0.91682033  0.41656289  0.41656289
   0.74999346  0.74999346  0.25000654
   0.74999346  0.25000654  0.74999346
   0.41656289  0.91682033  0.41656289
   0.41656289  0.41656289  0.91682033
   0.25000654  0.74999346  0.74999346
   0.58343711  0.41656289  0.08317967
   0.41656289  0.58343711  0.08317967
   0.58343711  0.08317967  0.41656289
   0.41656289  0.08317967  0.58343711
   0.08317967  0.58343711  0.41656289
   0.08317967  0.41656289  0.58343711
   0.25000654  0.25000654  0.25000654
   0.91711865  0.75063875  0.41645559
   0.75063875  0.91711865  0.41645559
   0.91711865  0.41645559  0.75063875
   0.75063875  0.41645559  0.91711865
   0.41645559  0.91711865  0.75063875
   0.41645559  0.75063875  0.91711865
   0.91711865  0.58354441  0.24936125
   0.91711865  0.24936125  0.58354441
   0.58354441  0.91711865  0.24936125
   0.58354441  0.24936125  0.91711865
   0.24936125  0.91711865  0.58354441
   0.24936125  0.58354441  0.91711865
   0.75063875  0.58354441  0.08288135
   0.58354441  0.75063875  0.08288135
   0.75063875  0.08288135  0.58354441
   0.58354441  0.08288135  0.75063875
   0.08288135  0.75063875  0.58354441
   0.08288135  0.58354441  0.75063875
   0.41645559  0.24936125  0.08288135
   0.41645559  0.08288135  0.24936125
   0.24936125  0.41645559  0.08288135
   0.24936125  0.08288135  0.41645559
   0.08288135  0.41645559  0.24936125
   0.08288135  0.24936125  0.41645559
   0.91695415  0.75016393  0.75016393
   0.75016393  0.91695415  0.75016393
   0.75016393  0.75016393  0.91695415
   0.91695415  0.24983607  0.24983607
   0.24983607  0.91695415  0.24983607
   0.24983607  0.24983607  0.91695415
   0.75016393  0.24983607  0.08304585
   0.75016393  0.08304585  0.24983607
   0.24983607  0.75016393  0.08304585
   0.08304585  0.75016393  0.24983607
   0.24983607  0.08304585  0.75016393
   0.08304585  0.24983607  0.75016393
   0.91702708  0.91702708  0.58335551
   0.91702708  0.58335551  0.91702708
   0.58335551  0.91702708  0.91702708
   0.91702708  0.41664449  0.08297292
   0.91702708  0.08297292  0.41664449
   0.41664449  0.91702708  0.08297292
   0.08297292  0.91702708  0.41664449
   0.41664449  0.08297292  0.91702708
   0.08297292  0.41664449  0.91702708
   0.58335551  0.08297292  0.08297292
   0.08297292  0.58335551  0.08297292
   0.08297292  0.08297292  0.58335551
   0.91668855  0.91668855  0.24981476
   0.91668855  0.24981476  0.91668855
   0.91668855  0.75018524  0.08331145
   0.75018524  0.91668855  0.08331145
   0.24981476  0.91668855  0.91668855
   0.91668855  0.08331145  0.75018524
   0.75018524  0.08331145  0.91668855
   0.08331145  0.91668855  0.75018524
   0.08331145  0.75018524  0.91668855
   0.24981476  0.08331145  0.08331145
   0.08331145  0.24981476  0.08331145
   0.08331145  0.08331145  0.24981476
   0.91671715  0.91671715  0.91671715
   0.91671715  0.08328285  0.08328285
   0.08328285  0.91671715  0.08328285
   0.08328285  0.08328285  0.91671715
   0.50000000  0.50000000  0.50000000
   0.67127879  0.50000000  0.50000000
   0.50000000  0.67127879  0.50000000
   0.50000000  0.50000000  0.67127879
   0.50000000  0.50000000  0.32872121
   0.50000000  0.32872121  0.50000000
   0.32872121  0.50000000  0.50000000
   0.66935675  0.66935675  0.66935675
   0.66675205  0.66675205  0.33324795
   0.66675205  0.33324795  0.66675205
   0.33324795  0.66675205  0.66675205
   0.66935675  0.33064325  0.33064325
   0.33064325  0.66935675  0.33064325
   0.33064325  0.33064325  0.66935675
   0.33324795  0.33324795  0.33324795
   0.83428021  0.66748945  0.50005413
   0.83428021  0.50005413  0.66748945
   0.66748945  0.83428021  0.50005413
   0.66748945  0.50005413  0.83428021
   0.50005413  0.83428021  0.66748945
   0.50005413  0.66748945  0.83428021
   0.83428021  0.49994587  0.33251055
   0.83428021  0.33251055  0.49994587
   0.49994587  0.83428021  0.33251055
   0.33251055  0.83428021  0.49994587
   0.49994587  0.33251055  0.83428021
   0.33251055  0.49994587  0.83428021
   0.66748945  0.49994587  0.16571979
   0.49994587  0.66748945  0.16571979
   0.66748945  0.16571979  0.49994587
   0.49994587  0.16571979  0.66748945
   0.16571979  0.66748945  0.49994587
   0.16571979  0.49994587  0.66748945
   0.50005413  0.33251055  0.16571979
   0.50005413  0.16571979  0.33251055
   0.33251055  0.50005413  0.16571979
   0.33251055  0.16571979  0.50005413
   0.16571979  0.50005413  0.33251055
   0.16571979  0.33251055  0.50005413
   0.83400790  0.83400790  0.66708465
   0.83400790  0.66708465  0.83400790
   0.66708465  0.83400790  0.83400790
   0.00000000  0.50000000  0.50000000
   0.83343286  0.83343286  0.33309898
   0.83343286  0.33309898  0.83343286
   0.50000000  0.00000000  0.50000000
   0.50000000  0.50000000  0.00000000
   0.33309898  0.83343286  0.83343286
   0.83343286  0.66690102  0.16656714
   0.66690102  0.83343286  0.16656714
   0.83343286  0.16656714  0.66690102
   0.66690102  0.16656714  0.83343286
   0.16656714  0.83343286  0.66690102
   0.83400790  0.33291535  0.16599210
   0.16656714  0.66690102  0.83343286
   0.83400790  0.16599210  0.33291535
   0.33291535  0.83400790  0.16599210
   0.16599210  0.83400790  0.33291535
   0.33291535  0.16599210  0.83400790
   0.16599210  0.33291535  0.83400790
   0.66708465  0.16599210  0.16599210
   0.16599210  0.66708465  0.16599210
   0.16599210  0.16599210  0.66708465
   0.33309898  0.16656714  0.16656714
   0.16656714  0.33309898  0.16656714
   0.16656714  0.16656714  0.33309898
   0.00002885  0.66679675  0.66679675
   0.66679675  0.00002885  0.66679675
   0.66679675  0.66679675  0.00002885
   0.99997115  0.66679675  0.33320325
   0.99997115  0.33320325  0.66679675
   0.66679675  0.99997115  0.33320325
   0.66679675  0.33320325  0.99997115
   0.33320325  0.99997115  0.66679675
   0.00002885  0.33320325  0.33320325
   0.33320325  0.66679675  0.99997115
   0.33320325  0.00002885  0.33320325
   0.33320325  0.33320325  0.00002885
   0.00000000  0.83378246  0.50000000
   0.83378246  0.00000000  0.50000000
   0.00000000  0.50000000  0.83378246
   0.83378246  0.50000000  0.00000000
   0.50000000  0.00000000  0.83378246
   0.50000000  0.83378246  0.00000000
   0.00000000  0.50000000  0.16621754
   0.00000000  0.16621754  0.50000000
   0.50000000  0.00000000  0.16621754
   0.16621754  0.00000000  0.50000000
   0.50000000  0.16621754  0.00000000
   0.16621754  0.50000000  0.00000000
   0.00005884  0.83348630  0.83348630
   0.83348630  0.00005884  0.83348630
   0.83348630  0.83348630  0.00005884
   0.99994116  0.83348630  0.16651370
   0.83348630  0.99994116  0.16651370
   0.99994116  0.16651370  0.83348630
   0.83348630  0.16651370  0.99994116
   0.16651370  0.99994116  0.83348630
   0.16651370  0.83348630  0.99994116
   0.00005884  0.16651370  0.16651370
   0.16651370  0.00005884  0.16651370
   0.16651370  0.16651370  0.00005884
   0.00000000  0.00000000  0.66699470
   0.00000000  0.66699470  0.00000000
   0.66699470  0.00000000  0.00000000
   0.00000000  0.00000000  0.33300530
   0.00000000  0.33300530  0.00000000
   0.33300530  0.00000000  0.00000000
   0.00000000  0.00000000  0.00000000
 
 position of ions in cartesian coordinates  (Angst):
  10.30323405 10.30323405 10.30323405
  10.30323405  7.25804087  7.25804087
   7.25804087 10.30323405  7.25804087
   7.25804087  7.25804087 10.30323405
  13.20814986 10.25849963  7.30277529
  13.20814986  7.30277529 10.25849963
  10.25849963 13.20814986  7.30277529
  10.25849963  7.30277529 13.20814986
   7.30277529 13.20814986 10.25849963
   7.30277529 10.25849963 13.20814986
  10.25849963 10.25849963  4.35312506
  10.25849963  4.35312506 10.25849963
   4.35312506 10.25849963 10.25849963
   7.30277529  7.30277529  4.35312506
   7.30277529  4.35312506  7.30277529
   4.35312506  7.30277529  7.30277529
  13.19495205 13.19495205 10.23807344
  13.19495205 10.23807344 13.19495205
  10.23807344 13.19495205 13.19495205
  13.19495205  7.32320148  4.36632287
  13.19495205  4.36632287  7.32320148
   7.32320148 13.19495205  4.36632287
   4.36632287 13.19495205  7.32320148
   7.32320148  4.36632287 13.19495205
   4.36632287  7.32320148 13.19495205
  10.23807344  4.36632287  4.36632287
   4.36632287 10.23807344  4.36632287
   4.36632287  4.36632287 10.23807344
  16.10053388 10.24589954 10.24589954
  10.24589954 16.10053388 10.24589954
  10.24589954 10.24589954 16.10053388
  16.10053388  7.31537538  7.31537538
  13.17084126 13.17084126  4.39043365
  13.17084126  4.39043365 13.17084126
   7.31537538 16.10053388  7.31537538
   7.31537538  7.31537538 16.10053388
   4.39043365 13.17084126 13.17084126
  10.24589954  7.31537538  1.46074103
   7.31537538 10.24589954  1.46074103
  10.24589954  1.46074103  7.31537538
   7.31537538  1.46074103 10.24589954
   1.46074103 10.24589954  7.31537538
   1.46074103  7.31537538 10.24589954
   4.39043365  4.39043365  4.39043365
  16.10577274 13.18217352  7.31349103
  13.18217352 16.10577274  7.31349103
  16.10577274  7.31349103 13.18217352
  13.18217352  7.31349103 16.10577274
   7.31349103 16.10577274 13.18217352
   7.31349103 13.18217352 16.10577274
  16.10577274 10.24778388  4.37910139
  16.10577274  4.37910139 10.24778388
  10.24778388 16.10577274  4.37910139
  10.24778388  4.37910139 16.10577274
   4.37910139 16.10577274 10.24778388
   4.37910139 10.24778388 16.10577274
  13.18217352 10.24778388  1.45550218
  10.24778388 13.18217352  1.45550218
  13.18217352  1.45550218 10.24778388
  10.24778388  1.45550218 13.18217352
   1.45550218 13.18217352 10.24778388
   1.45550218 10.24778388 13.18217352
   7.31349103  4.37910139  1.45550218
   7.31349103  1.45550218  4.37910139
   4.37910139  7.31349103  1.45550218
   4.37910139  1.45550218  7.31349103
   1.45550218  7.31349103  4.37910139
   1.45550218  4.37910139  7.31349103
  16.10288395 13.17383495 13.17383495
  13.17383495 16.10288395 13.17383495
  13.17383495 13.17383495 16.10288395
  16.10288395  4.38743997  4.38743997
   4.38743997 16.10288395  4.38743997
   4.38743997  4.38743997 16.10288395
  13.17383495  4.38743997  1.45839096
  13.17383495  1.45839096  4.38743997
   4.38743997 13.17383495  1.45839096
   1.45839096 13.17383495  4.38743997
   4.38743997  1.45839096 13.17383495
   1.45839096  4.38743997 13.17383495
  16.10416470 16.10416470 10.24446656
  16.10416470 10.24446656 16.10416470
  10.24446656 16.10416470 16.10416470
  16.10416470  7.31680836  1.45711021
  16.10416470  1.45711021  7.31680836
   7.31680836 16.10416470  1.45711021
   1.45711021 16.10416470  7.31680836
   7.31680836  1.45711021 16.10416470
   1.45711021  7.31680836 16.10416470
  10.24446656  1.45711021  1.45711021
   1.45711021 10.24446656  1.45711021
   1.45711021  1.45711021 10.24446656
  16.09821966 16.09821966  4.38706564
  16.09821966  4.38706564 16.09821966
  16.09821966 13.17420928  1.46305526
  13.17420928 16.09821966  1.46305526
   4.38706564 16.09821966 16.09821966
  16.09821966  1.46305526 13.17420928
  13.17420928  1.46305526 16.09821966
   1.46305526 16.09821966 13.17420928
   1.46305526 13.17420928 16.09821966
   4.38706564  1.46305526  1.46305526
   1.46305526  4.38706564  1.46305526
   1.46305526  1.46305526  4.38706564
  16.09872181 16.09872181 16.09872181
  16.09872181  1.46255311  1.46255311
   1.46255311 16.09872181  1.46255311
   1.46255311  1.46255311 16.09872181
   8.78063746  8.78063746  8.78063746
  11.78851131  8.78063746  8.78063746
   8.78063746 11.78851131  8.78063746
   8.78063746  8.78063746 11.78851131
   8.78063746  8.78063746  5.77276361
   8.78063746  5.77276361  8.78063746
   5.77276361  8.78063746  8.78063746
  11.75475789 11.75475789 11.75475789
  11.70901606 11.70901606  5.85225885
  11.70901606  5.85225885 11.70901606
   5.85225885 11.70901606 11.70901606
  11.75475789  5.80651703  5.80651703
   5.80651703 11.75475789  5.80651703
   5.80651703  5.80651703 11.75475789
   5.85225885  5.85225885  5.85225885
  14.65102421 11.72196571  8.78158811
  14.65102421  8.78158811 11.72196571
  11.72196571 14.65102421  8.78158811
  11.72196571  8.78158811 14.65102421
   8.78158811 14.65102421 11.72196571
   8.78158811 11.72196571 14.65102421
  14.65102421  8.77968681  5.83930921
  14.65102421  5.83930921  8.77968681
   8.77968681 14.65102421  5.83930921
   5.83930921 14.65102421  8.77968681
   8.77968681  5.83930921 14.65102421
   5.83930921  8.77968681 14.65102421
  11.72196571  8.77968681  2.91025071
   8.77968681 11.72196571  2.91025071
  11.72196571  2.91025071  8.77968681
   8.77968681  2.91025071 11.72196571
   2.91025071 11.72196571  8.77968681
   2.91025071  8.77968681 11.72196571
   8.78158811  5.83930921  2.91025071
   8.78158811  2.91025071  5.83930921
   5.83930921  8.78158811  2.91025071
   5.83930921  2.91025071  8.78158811
   2.91025071  8.78158811  5.83930921
   2.91025071  5.83930921  8.78158811
  14.64624206 14.64624206 11.71485693
  14.64624206 11.71485693 14.64624206
  11.71485693 14.64624206 14.64624206
   0.00000000  8.78063746  8.78063746
  14.63614354 14.63614354  5.84964275
  14.63614354  5.84964275 14.63614354
   8.78063746  0.00000000  8.78063746
   8.78063746  8.78063746  0.00000000
   5.84964275 14.63614354 14.63614354
  14.63614354 11.71163217  2.92513138
  11.71163217 14.63614354  2.92513138
  14.63614354  2.92513138 11.71163217
  11.71163217  2.92513138 14.63614354
   2.92513138 14.63614354 11.71163217
  14.64624206  5.84641799  2.91503285
   2.92513138 11.71163217 14.63614354
  14.64624206  2.91503285  5.84641799
   5.84641799 14.64624206  2.91503285
   2.91503285 14.64624206  5.84641799
   5.84641799  2.91503285 14.64624206
   2.91503285  5.84641799 14.64624206
  11.71485693  2.91503285  2.91503285
   2.91503285 11.71485693  2.91503285
   2.91503285  2.91503285 11.71485693
   5.84964275  2.92513138  2.92513138
   2.92513138  5.84964275  2.92513138
   2.92513138  2.92513138  5.84964275
   0.00050668 11.70980101 11.70980101
  11.70980101  0.00050668 11.70980101
  11.70980101 11.70980101  0.00050668
  17.56076824 11.70980101  5.85147391
  17.56076824  5.85147391 11.70980101
  11.70980101 17.56076824  5.85147391
  11.70980101  5.85147391 17.56076824
   5.85147391 17.56076824 11.70980101
   0.00050668  5.85147391  5.85147391
   5.85147391 11.70980101 17.56076824
   5.85147391  0.00050668  5.85147391
   5.85147391  5.85147391  0.00050668
   0.00000000 14.64228304  8.78063746
  14.64228304  0.00000000  8.78063746
   0.00000000  8.78063746 14.64228304
  14.64228304  8.78063746  0.00000000
   8.78063746  0.00000000 14.64228304
   8.78063746 14.64228304  0.00000000
   0.00000000  8.78063746  2.91899188
   0.00000000  2.91899188  8.78063746
   8.78063746  0.00000000  2.91899188
   2.91899188  0.00000000  8.78063746
   8.78063746  2.91899188  0.00000000
   2.91899188  8.78063746  0.00000000
   0.00103330 14.63708198 14.63708198
  14.63708198  0.00103330 14.63708198
  14.63708198 14.63708198  0.00103330
  17.56024162 14.63708198  2.92419294
  14.63708198 17.56024162  2.92419294
  17.56024162  2.92419294 14.63708198
  14.63708198  2.92419294 17.56024162
   2.92419294 17.56024162 14.63708198
   2.92419294 14.63708198 17.56024162
   0.00103330  2.92419294  2.92419294
   2.92419294  0.00103330  2.92419294
   2.92419294  2.92419294  0.00103330
   0.00000000  0.00000000 11.71327723
   0.00000000 11.71327723  0.00000000
  11.71327723  0.00000000  0.00000000
   0.00000000  0.00000000  5.84799768
   0.00000000  5.84799768  0.00000000
   5.84799768  0.00000000  0.00000000
   0.00000000  0.00000000  0.00000000
 


--------------------------------------------------------------------------------------------------------


 k-point  1 :   0.0000 0.0000 0.0000  plane waves:  203965
 k-point  2 :   0.3333 0.0000 0.0000  plane waves:  203781
 k-point  3 :   0.3333 0.3333 0.0000  plane waves:  203862
 k-point  4 :   0.3333 0.3333 0.3333  plane waves:  203778

 maximum and minimum number of plane-waves per node :    203965   203778

 maximum number of plane-waves:    203965
 maximum index in each direction: 
   IXMAX=   36   IYMAX=   36   IZMAX=   36
   IXMIN=  -36   IYMIN=  -36   IZMIN=  -36


 serial   3D FFT for wavefunctions
 parallel 3D FFT for charge:
    minimum data exchange during FFTs selected (reduces bandwidth)


 total amount of memory used by VASP MPI-rank0  1431511. kBytes
=======================================================================

   base      :      30000. kBytes
   nonl-proj :    1194163. kBytes
   fftplans  :      15087. kBytes
   grid      :     137526. kBytes
   one-center:      14259. kBytes
   wavefun   :      40476. kBytes
 
     INWAV:  cpu time    0.0000: real time    0.0000
 Broyden mixing: mesh for mixing (old mesh)
   NGX = 73   NGY = 73   NGZ = 73
  (NGX  =196   NGY  =196   NGZ  =196)
  gives a total of 389017 points

 initial charge density was supplied:
 charge density of overlapping atoms calculated
 number of electron    1949.0000000 magnetization 
 keeping initial charge density in first step


--------------------------------------------------------------------------------------------------------


 Maximum index for augmentation-charges          421 (set IRDMAX)


--------------------------------------------------------------------------------------------------------


 First call to EWALD:  gamma=   0.101
 Maximum number of real-space cells 3x 3x 3
 Maximum number of reciprocal cells 3x 3x 3

    FEWALD:  cpu time    0.0085: real time    0.0086


--------------------------------------- Iteration      1(   1)  ---------------------------------------


    POTLOK:  cpu time    0.3314: real time    0.3377
    SETDIJ:  cpu time    0.0352: real time    0.0353
     EDDAV:  cpu time 1079.3328: real time 1079.5782
       DOS:  cpu time    0.0093: real time    0.0100
    --------------------------------------------
      LOOP:  cpu time 1079.7088: real time 1079.9613

 eigenvalue-minimisations  : 20736
 total energy-change (2. order) : 0.1618586E+05  (-0.8217531E+05)
 number of electron    1949.0000000 magnetization 
 augmentation part     1949.0000000 magnetization 

 Free energy of the ion-electron system (eV)
  ---------------------------------------------------
  alpha Z        PSCENC =      6025.86535497
  Ewald energy   TEWEN  =   -132301.98294537
  -Hartree energ DENC   =    -57382.24000625
  -exchange      EXHF   =         0.00000000
  -V(xc)+E(xc)   XCENC  =      4098.70872548
  PAW double counting   =    162828.12964700  -162617.09779396
  entropy T*S    EENTRO =        -0.31861399
  eigenvalues    EBANDS =      5657.55328702
  atomic energy  EATOM  =    189877.24264489
  Solvation  Ediel_sol  =         0.00000000
  ---------------------------------------------------
  free energy    TOTEN  =     16185.86029978 eV

  energy without entropy =    16186.17891377  energy(sigma->0) =    16186.01960678


--------------------------------------------------------------------------------------------------------




--------------------------------------- Iteration      1(   2)  ---------------------------------------


     EDDAV:  cpu time 1675.8835: real time 1676.2524
       DOS:  cpu time    0.0059: real time    0.0067
    --------------------------------------------
      LOOP:  cpu time 1675.8894: real time 1676.2591

 eigenvalue-minimisations  : 27648
 total energy-change (2. order) :-0.1530826E+05  (-0.1454147E+05)
 number of electron    1949.0000000 magnetization 
 augmentation part     1949.0000000 magnetization 

 Free energy of the ion-electron system (eV)
  ---------------------------------------------------
  alpha Z        PSCENC =      6025.86535497
  Ewald energy   TEWEN  =   -132301.98294537
  -Hartree energ DENC   =    -57382.24000625
  -exchange      EXHF   =         0.00000000
  -V(xc)+E(xc)   XCENC  =      4098.70872548
  PAW double counting   =    162828.12964700  -162617.09779396
  entropy T*S    EENTRO =        -0.13135660
  eigenvalues    EBANDS =     -9650.89658242
  atomic energy  EATOM  =    189877.24264489
  Solvation  Ediel_sol  =         0.00000000
  ---------------------------------------------------
  free energy    TOTEN  =       877.59768775 eV

  energy without entropy =      877.72904434  energy(sigma->0) =      877.66336604


--------------------------------------------------------------------------------------------------------




--------------------------------------- Iteration      1(   3)  ---------------------------------------


     EDDAV:  cpu time 1657.8612: real time 1658.2963
       DOS:  cpu time    0.0128: real time    0.0136
    --------------------------------------------
      LOOP:  cpu time 1657.8740: real time 1658.3099

 eigenvalue-minimisations  : 27648
 total energy-change (2. order) :-0.1874777E+04  (-0.1861095E+04)
 number of electron    1949.0000000 magnetization 
 augmentation part     1949.0000000 magnetization 

 Free energy of the ion-electron system (eV)
  ---------------------------------------------------
  alpha Z        PSCENC =      6025.86535497
  Ewald energy   TEWEN  =   -132301.98294537
  -Hartree energ DENC   =    -57382.24000625
  -exchange      EXHF   =         0.00000000
  -V(xc)+E(xc)   XCENC  =      4098.70872548
  PAW double counting   =    162828.12964700  -162617.09779396
  entropy T*S    EENTRO =        -0.16611057
  eigenvalues    EBANDS =    -11525.63878101
  atomic energy  EATOM  =    189877.24264489
  Solvation  Ediel_sol  =         0.00000000
  ---------------------------------------------------
  free energy    TOTEN  =      -997.17926482 eV

  energy without entropy =     -997.01315425  energy(sigma->0) =     -997.09620954


--------------------------------------------------------------------------------------------------------




--------------------------------------- Iteration      1(   4)  ---------------------------------------


     EDDAV:  cpu time 1511.5449: real time 1511.9271
       DOS:  cpu time    0.0090: real time    0.0097
    --------------------------------------------
      LOOP:  cpu time 1511.5539: real time 1511.9369

 eigenvalue-minimisations  : 25920
 total energy-change (2. order) :-0.8798549E+02  (-0.8788589E+02)
 number of electron    1949.0000000 magnetization 
 augmentation part     1949.0000000 magnetization 

 Free energy of the ion-electron system (eV)
  ---------------------------------------------------
  alpha Z        PSCENC =      6025.86535497
  Ewald energy   TEWEN  =   -132301.98294537
  -Hartree energ DENC   =    -57382.24000625
  -exchange      EXHF   =         0.00000000
  -V(xc)+E(xc)   XCENC  =      4098.70872548
  PAW double counting   =    162828.12964700  -162617.09779396
  entropy T*S    EENTRO =        -0.16670147
  eigenvalues    EBANDS =    -11613.62367537
  atomic energy  EATOM  =    189877.24264489
  Solvation  Ediel_sol  =         0.00000000
  ---------------------------------------------------
  free energy    TOTEN  =     -1085.16475009 eV

  energy without entropy =    -1084.99804862  energy(sigma->0) =    -1085.08139935


--------------------------------------------------------------------------------------------------------




--------------------------------------- Iteration      1(   5)  ---------------------------------------


     EDDAV:  cpu time 1480.6213: real time 1481.0105
       DOS:  cpu time    0.0075: real time    0.0082
    CHARGE:  cpu time    2.1474: real time    2.1475
    MIXING:  cpu time    0.0018: real time    0.0019
    --------------------------------------------
      LOOP:  cpu time 1482.7779: real time 1483.1680

 eigenvalue-minimisations  : 25344
 total energy-change (2. order) :-0.8035104E+01  (-0.8033839E+01)
 number of electron    1948.9999965 magnetization 
 augmentation part      647.6504995 magnetization 

 Broyden mixing:
  rms(total) = 0.70140E+01    rms(broyden)= 0.70140E+01
  rms(prec ) = 0.72754E+01
  weight for this iteration     100.00

 Free energy of the ion-electron system (eV)
  ---------------------------------------------------
  alpha Z        PSCENC =      6025.86535497
  Ewald energy   TEWEN  =   -132301.98294537
  -Hartree energ DENC   =    -57382.24000625
  -exchange      EXHF   =         0.00000000
  -V(xc)+E(xc)   XCENC  =      4098.70872548
  PAW double counting   =    162828.12964700  -162617.09779396
  entropy T*S    EENTRO =        -0.16674015
  eigenvalues    EBANDS =    -11621.65874050
  atomic energy  EATOM  =    189877.24264489
  Solvation  Ediel_sol  =         0.00000000
  ---------------------------------------------------
  free energy    TOTEN  =     -1093.19985390 eV

  energy without entropy =    -1093.03311375  energy(sigma->0) =    -1093.11648382


--------------------------------------------------------------------------------------------------------




--------------------------------------- Iteration      1(   6)  ---------------------------------------


    POTLOK:  cpu time    0.1339: real time    0.1562
    SETDIJ:  cpu time    0.0339: real time    0.0339
     EDDAV:  cpu time 1610.9979: real time 1611.3594
       DOS:  cpu time    0.0027: real time    0.0034
    CHARGE:  cpu time    2.1523: real time    2.1524
    MIXING:  cpu time    0.0016: real time    0.0018
    --------------------------------------------
      LOOP:  cpu time 1613.3223: real time 1613.7071

 eigenvalue-minimisations  : 27072
 total energy-change (2. order) : 0.4209576E+02  (-0.8020783E+01)
 number of electron    1948.9999966 magnetization 
 augmentation part      655.2051273 magnetization 

 Broyden mixing:
  rms(total) = 0.32442E+01    rms(broyden)= 0.32442E+01
  rms(prec ) = 0.33180E+01
  weight for this iteration     100.00

 eigenvalues of (default mixing * dielectric matrix)
  average eigenvalue GAMMA=   1.7949
  1.7949

 Free energy of the ion-electron system (eV)
  ---------------------------------------------------
  alpha Z        PSCENC =      6025.86535497
  Ewald energy   TEWEN  =   -132301.98294537
  -Hartree energ DENC   =    -56933.36047962
  -exchange      EXHF   =         0.00000000
  -V(xc)+E(xc)   XCENC  =      4100.87257802
  PAW double counting   =    169106.78907718  -168876.40419327
  entropy T*S    EENTRO =        -0.16245018
  eigenvalues    EBANDS =    -12049.96367822
  atomic energy  EATOM  =    189877.24264489
  Solvation  Ediel_sol  =         0.00000000
  ---------------------------------------------------
  free energy    TOTEN  =     -1051.10409160 eV

  energy without entropy =    -1050.94164142  energy(sigma->0) =    -1051.02286651


--------------------------------------------------------------------------------------------------------




--------------------------------------- Iteration      1(   7)  ---------------------------------------


    POTLOK:  cpu time    0.1314: real time    0.1489
    SETDIJ:  cpu time    0.0348: real time    0.0348
     EDDAV:  cpu time 1665.2424: real time 1665.6433
       DOS:  cpu time    0.0056: real time    0.0064
    CHARGE:  cpu time    2.1471: real time    2.1472
    MIXING:  cpu time    0.0014: real time    0.0014
    --------------------------------------------
      LOOP:  cpu time 1667.5627: real time 1667.9820

 eigenvalue-minimisations  : 27648
 total energy-change (2. order) : 0.3409681E+01  (-0.3201036E+01)
 number of electron    1948.9999966 magnetization 
 augmentation part      656.7853005 magnetization 

 Broyden mixing:
  rms(total) = 0.17414E+01    rms(broyden)= 0.17414E+01
  rms(prec ) = 0.17596E+01
  weight for this iteration     100.00

 eigenvalues of (default mixing * dielectric matrix)
  average eigenvalue GAMMA=   1.3791
  2.1727  0.5854

 Free energy of the ion-electron system (eV)
  ---------------------------------------------------
  alpha Z        PSCENC =      6025.86535497
  Ewald energy   TEWEN  =   -132301.98294537
  -Hartree energ DENC   =    -56885.08812198
  -exchange      EXHF   =         0.00000000
  -V(xc)+E(xc)   XCENC  =      4112.25170339
  PAW double counting   =    177377.80898641  -177217.50704281
  entropy T*S    EENTRO =        -0.15961905
  eigenvalues    EBANDS =    -12036.12537153
  atomic energy  EATOM  =    189877.24264489
  Solvation  Ediel_sol  =         0.00000000
  ---------------------------------------------------
  free energy    TOTEN  =     -1047.69441107 eV

  energy without entropy =    -1047.53479202  energy(sigma->0) =    -1047.61460154


--------------------------------------------------------------------------------------------------------




--------------------------------------- Iteration      1(   8)  ---------------------------------------


    POTLOK:  cpu time    0.1349: real time    0.1477
    SETDIJ:  cpu time    0.0322: real time    0.0322
     EDDAV:  cpu time 1470.1339: real time 1470.4827
       DOS:  cpu time    0.0067: real time    0.0075
    CHARGE:  cpu time    2.1568: real time    2.1569
    MIXING:  cpu time    0.0010: real time    0.0010
    --------------------------------------------
      LOOP:  cpu time 1472.4654: real time 1472.8281

 eigenvalue-minimisations  : 25344
 total energy-change (2. order) : 0.2881510E+00  (-0.1597132E+00)
 number of electron    1948.9999966 magnetization 
 augmentation part      656.3219455 magnetization 

 Broyden mixing:
  rms(total) = 0.13991E+01    rms(broyden)= 0.13991E+01
  rms(prec ) = 0.14101E+01
  weight for this iteration     100.00

 eigenvalues of (default mixing * dielectric matrix)
  average eigenvalue GAMMA=   1.8368
  2.9024  1.3041  1.3041

 Free energy of the ion-electron system (eV)
  ---------------------------------------------------
  alpha Z        PSCENC =      6025.86535497
  Ewald energy   TEWEN  =   -132301.98294537
  -Hartree energ DENC   =    -56914.27688368
  -exchange      EXHF   =         0.00000000
  -V(xc)+E(xc)   XCENC  =      4115.03737504
  PAW double counting   =    179770.62138211  -179635.39607777
  entropy T*S    EENTRO =        -0.15958402
  eigenvalues    EBANDS =    -11984.35752624
  atomic energy  EATOM  =    189877.24264489
  Solvation  Ediel_sol  =         0.00000000
  ---------------------------------------------------
  free energy    TOTEN  =     -1047.40626007 eV

  energy without entropy =    -1047.24667605  energy(sigma->0) =    -1047.32646806


--------------------------------------------------------------------------------------------------------




--------------------------------------- Iteration      1(   9)  ---------------------------------------


    POTLOK:  cpu time    0.1254: real time    0.1392
    SETDIJ:  cpu time    0.0332: real time    0.0332
     EDDAV:  cpu time 1675.8271: real time 1676.1891
       DOS:  cpu time    0.0070: real time    0.0078
    CHARGE:  cpu time    2.1372: real time    2.1374
    MIXING:  cpu time    0.0012: real time    0.0012
    --------------------------------------------
      LOOP:  cpu time 1678.1312: real time 1678.5079

 eigenvalue-minimisations  : 27648
 total energy-change (2. order) : 0.2772764E+00  (-0.5361099E-01)
 number of electron    1948.9999966 magnetization 
 augmentation part      656.0344338 magnetization 

 Broyden mixing:
  rms(total) = 0.24599E+00    rms(broyden)= 0.24599E+00
  rms(prec ) = 0.25864E+00
  weight for this iteration     100.00

 eigenvalues of (default mixing * dielectric matrix)
  average eigenvalue GAMMA=   1.5680
  2.4081  1.7450  1.0338  1.0849

 Free energy of the ion-electron system (eV)
  ---------------------------------------------------
  alpha Z        PSCENC =      6025.86535497
  Ewald energy   TEWEN  =   -132301.98294537
  -Hartree energ DENC   =    -56930.21223526
  -exchange      EXHF   =         0.00000000
  -V(xc)+E(xc)   XCENC  =      4117.91705637
  PAW double counting   =    182688.34488922  -182571.14819377
  entropy T*S    EENTRO =        -0.15985295
  eigenvalues    EBANDS =    -11952.99570174
  atomic energy  EATOM  =    189877.24264489
  Solvation  Ediel_sol  =         0.00000000
  ---------------------------------------------------
  free energy    TOTEN  =     -1047.12898364 eV

  energy without entropy =    -1046.96913069  energy(sigma->0) =    -1047.04905717


--------------------------------------------------------------------------------------------------------




--------------------------------------- Iteration      1(  10)  ---------------------------------------


    POTLOK:  cpu time    0.1307: real time    0.1434
    SETDIJ:  cpu time    0.0327: real time    0.0328
     EDDAV:  cpu time 1668.9598: real time 1669.3644
       DOS:  cpu time    0.0052: real time    0.0061
    CHARGE:  cpu time    2.1418: real time    2.1419
    MIXING:  cpu time    0.0013: real time    0.0013
    --------------------------------------------
      LOOP:  cpu time 1671.2714: real time 1671.6899

 eigenvalue-minimisations  : 27648
 total energy-change (2. order) : 0.8222716E-01  (-0.2185959E-01)
 number of electron    1948.9999966 magnetization 
 augmentation part      655.6517252 magnetization 

 Broyden mixing:
  rms(total) = 0.62857E-01    rms(broyden)= 0.62857E-01
  rms(prec ) = 0.63812E-01
  weight for this iteration     100.00

 eigenvalues of (default mixing * dielectric matrix)
  average eigenvalue GAMMA=   1.3965
  2.4543  1.7565  1.2561  0.7579  0.7579

 Free energy of the ion-electron system (eV)
  ---------------------------------------------------
  alpha Z        PSCENC =      6025.86535497
  Ewald energy   TEWEN  =   -132301.98294537
  -Hartree energ DENC   =    -56946.66168375
  -exchange      EXHF   =         0.00000000
  -V(xc)+E(xc)   XCENC  =      4117.11822405
  PAW double counting   =    182036.43738470  -181916.67454472
  entropy T*S    EENTRO =        -0.16009971
  eigenvalues    EBANDS =    -11938.23109154
  atomic energy  EATOM  =    189877.24264489
  Solvation  Ediel_sol  =         0.00000000
  ---------------------------------------------------
  free energy    TOTEN  =     -1047.04675648 eV

  energy without entropy =    -1046.88665677  energy(sigma->0) =    -1046.96670663


--------------------------------------------------------------------------------------------------------




--------------------------------------- Iteration      1(  11)  ---------------------------------------


    POTLOK:  cpu time    0.1200: real time    0.1471
    SETDIJ:  cpu time    0.0337: real time    0.0337
     EDDAV:  cpu time 1391.1725: real time 1391.5176
       DOS:  cpu time    0.0101: real time    0.0107
    CHARGE:  cpu time    2.1422: real time    2.1424
    MIXING:  cpu time    0.0014: real time    0.0014
    --------------------------------------------
      LOOP:  cpu time 1393.4800: real time 1393.8529

 eigenvalue-minimisations  : 23616
 total energy-change (2. order) :-0.4630316E-02  (-0.4087171E-02)
 number of electron    1948.9999966 magnetization 
 augmentation part      655.5677451 magnetization 

 Broyden mixing:
  rms(total) = 0.65861E-01    rms(broyden)= 0.65861E-01
  rms(prec ) = 0.66367E-01
  weight for this iteration     100.00

 eigenvalues of (default mixing * dielectric matrix)
  average eigenvalue GAMMA=   1.4044
  2.2609  1.5186  1.5186  1.1706  1.1706  0.7870

 Free energy of the ion-electron system (eV)
  ---------------------------------------------------
  alpha Z        PSCENC =      6025.86535497
  Ewald energy   TEWEN  =   -132301.98294537
  -Hartree energ DENC   =    -56947.59726963
  -exchange      EXHF   =         0.00000000
  -V(xc)+E(xc)   XCENC  =      4117.18515603
  PAW double counting   =    182046.01639070  -181926.26491653
  entropy T*S    EENTRO =        -0.16011963
  eigenvalues    EBANDS =    -11937.35568223
  atomic energy  EATOM  =    189877.24264489
  Solvation  Ediel_sol  =         0.00000000
  ---------------------------------------------------
  free energy    TOTEN  =     -1047.05138680 eV

  energy without entropy =    -1046.89126717  energy(sigma->0) =    -1046.97132698


--------------------------------------------------------------------------------------------------------




--------------------------------------- Iteration      1(  12)  ---------------------------------------


    POTLOK:  cpu time    0.1174: real time    0.1988
    SETDIJ:  cpu time    0.0321: real time    0.0321
     EDDAV:  cpu time 1549.3285: real time 1549.7033
       DOS:  cpu time    0.0055: real time    0.0064
    CHARGE:  cpu time    2.1476: real time    2.1477
    MIXING:  cpu time    0.0016: real time    0.0016
    --------------------------------------------
      LOOP:  cpu time 1551.6326: real time 1552.0898

 eigenvalue-minimisations  : 25920
 total energy-change (2. order) :-0.3117635E-03  (-0.2674798E-03)
 number of electron    1948.9999966 magnetization 
 augmentation part      655.5449137 magnetization 

 Broyden mixing:
  rms(total) = 0.21716E-01    rms(broyden)= 0.21715E-01
  rms(prec ) = 0.22380E-01
  weight for this iteration     100.00

 eigenvalues of (default mixing * dielectric matrix)
  average eigenvalue GAMMA=   1.5201
  2.6535  2.0919  1.7577  1.2460  1.2460  0.8228  0.8228

 Free energy of the ion-electron system (eV)
  ---------------------------------------------------
  alpha Z        PSCENC =      6025.86535497
  Ewald energy   TEWEN  =   -132301.98294537
  -Hartree energ DENC   =    -56948.65518619
  -exchange      EXHF   =         0.00000000
  -V(xc)+E(xc)   XCENC  =      4117.04865359
  PAW double counting   =    181924.85116827  -181804.93760781
  entropy T*S    EENTRO =        -0.16012460
  eigenvalues    EBANDS =    -11936.32365632
  atomic energy  EATOM  =    189877.24264489
  Solvation  Ediel_sol  =         0.00000000
  ---------------------------------------------------
  free energy    TOTEN  =     -1047.05169856 eV

  energy without entropy =    -1046.89157396  energy(sigma->0) =    -1046.97163626


--------------------------------------------------------------------------------------------------------




--------------------------------------- Iteration      1(  13)  ---------------------------------------


    POTLOK:  cpu time    0.1209: real time    0.1783
    SETDIJ:  cpu time    0.0321: real time    0.0321
     EDDAV:  cpu time 1521.5802: real time 1521.9746
       DOS:  cpu time    0.0057: real time    0.0066
    CHARGE:  cpu time    2.1528: real time    2.1530
    MIXING:  cpu time    0.0015: real time    0.0015
    --------------------------------------------
      LOOP:  cpu time 1523.8932: real time 1524.3460

[...]
     10.26090     10.26090      4.34775        -0.001045     -0.001045      0.000676
     10.26090      4.34775     10.26090        -0.001045      0.000676     -0.001045
      4.34775     10.26090     10.26090         0.000676     -0.001045     -0.001045
      7.30038      7.30038      4.34775         0.001045      0.001045      0.000676
      7.30038      4.34775      7.30038         0.001045      0.000676      0.001045
      4.34775      7.30038      7.30038         0.000676      0.001045      0.001045
     13.18970     13.18970     10.23742         0.000305      0.000305      0.000618
     13.18970     10.23742     13.18970         0.000305      0.000618      0.000305
     10.23742     13.18970     13.18970         0.000618      0.000305      0.000305
     13.18970      7.32385      4.37157         0.000305     -0.000618     -0.000305
     13.18970      4.37157      7.32385         0.000305     -0.000305     -0.000618
      7.32385     13.18970      4.37157        -0.000618      0.000305     -0.000305
      4.37157     13.18970      7.32385        -0.000305      0.000305     -0.000618
      7.32385      4.37157     13.18970        -0.000618     -0.000305      0.000305
      4.37157      7.32385     13.18970        -0.000305     -0.000618      0.000305
     10.23742      4.37157      4.37157         0.000618     -0.000305     -0.000305
      4.37157     10.23742      4.37157        -0.000305      0.000618     -0.000305
      4.37157      4.37157     10.23742        -0.000305     -0.000305      0.000618
     16.10184     10.24633     10.24633         0.002483     -0.000590     -0.000590
     10.24633     16.10184     10.24633        -0.000590      0.002483     -0.000590
     10.24633     10.24633     16.10184        -0.000590     -0.000590      0.002483
     16.10184      7.31494      7.31494         0.002483      0.000590      0.000590
     13.17085     13.17085      4.39042         0.001549      0.001549     -0.001549
     13.17085      4.39042     13.17085         0.001549     -0.001549      0.001549
      7.31494     16.10184      7.31494         0.000590      0.002483      0.000590
      7.31494      7.31494     16.10184         0.000590      0.000590      0.002483
      4.39042     13.17085     13.17085        -0.001549      0.001549      0.001549
     10.24633      7.31494      1.45944        -0.000590      0.000590     -0.002483
      7.31494     10.24633      1.45944         0.000590     -0.000590     -0.002483
     10.24633      1.45944      7.31494        -0.000590     -0.002483      0.000590
      7.31494      1.45944     10.24633         0.000590     -0.002483     -0.000590
      1.45944     10.24633      7.31494        -0.002483     -0.000590      0.000590
      1.45944      7.31494     10.24633        -0.002483      0.000590     -0.000590
      4.39042      4.39042      4.39042        -0.001549     -0.001549     -0.001549
     16.10658     13.18319      7.31331         0.001340      0.001579     -0.001352
     13.18319     16.10658      7.31331         0.001579      0.001340     -0.001352
     16.10658      7.31331     13.18319         0.001340     -0.001352      0.001579
     13.18319      7.31331     16.10658         0.001579     -0.001352      0.001340
      7.31331     16.10658     13.18319        -0.001352      0.001340      0.001579
      7.31331     13.18319     16.10658        -0.001352      0.001579      0.001340
     16.10658     10.24796      4.37809         0.001340      0.001352     -0.001579
     16.10658      4.37809     10.24796         0.001340     -0.001579      0.001352
     10.24796     16.10658      4.37809         0.001352      0.001340     -0.001579
     10.24796      4.37809     16.10658         0.001352     -0.001579      0.001340
      4.37809     16.10658     10.24796        -0.001579      0.001340      0.001352
      4.37809     10.24796     16.10658        -0.001579      0.001352      0.001340
     13.18319     10.24796      1.45469         0.001579      0.001352     -0.001340
     10.24796     13.18319      1.45469         0.001352      0.001579     -0.001340
     13.18319      1.45469     10.24796         0.001579     -0.001340      0.001352
     10.24796      1.45469     13.18319         0.001352     -0.001340      0.001579
      1.45469     13.18319     10.24796        -0.001340      0.001579      0.001352
      1.45469     10.24796     13.18319        -0.001340      0.001352      0.001579
      7.31331      4.37809      1.45469        -0.001352     -0.001579     -0.001340
      7.31331      1.45469      4.37809        -0.001352     -0.001340     -0.001579
      4.37809      7.31331      1.45469        -0.001579     -0.001352     -0.001340
      4.37809      1.45469      7.31331        -0.001579     -0.001340     -0.001352
      1.45469      7.31331      4.37809        -0.001340     -0.001352     -0.001579
      1.45469      4.37809      7.31331        -0.001340     -0.001579     -0.001352
     16.10099     13.17342     13.17342         0.000756      0.000260      0.000260
     13.17342     16.10099     13.17342         0.000260      0.000756      0.000260
     13.17342     13.17342     16.10099         0.000260      0.000260      0.000756
     16.10099      4.38785      4.38785         0.000756     -0.000260     -0.000260
      4.38785     16.10099      4.38785        -0.000260      0.000756     -0.000260
      4.38785      4.38785     16.10099        -0.000260     -0.000260      0.000756
     13.17342      4.38785      1.46028         0.000260     -0.000260     -0.000756
     13.17342      1.46028      4.38785         0.000260     -0.000756     -0.000260
      4.38785     13.17342      1.46028        -0.000260      0.000260     -0.000756
      1.46028     13.17342      4.38785        -0.000756      0.000260     -0.000260
      4.38785      1.46028     13.17342        -0.000260     -0.000756      0.000260
      1.46028      4.38785     13.17342        -0.000756     -0.000260      0.000260
     16.10229     16.10229     10.24617         0.000251      0.000251      0.000808
     16.10229     10.24617     16.10229         0.000251      0.000808      0.000251
     10.24617     16.10229     16.10229         0.000808      0.000251      0.000251
     16.10229      7.31511      1.45898         0.000251     -0.000808     -0.000251
     16.10229      1.45898      7.31511         0.000251     -0.000251     -0.000808
      7.31511     16.10229      1.45898        -0.000808      0.000251     -0.000251
      1.45898     16.10229      7.31511        -0.000251      0.000251     -0.000808
      7.31511      1.45898     16.10229        -0.000808     -0.000251      0.000251
      1.45898      7.31511     16.10229        -0.000251     -0.000808      0.000251
     10.24617      1.45898      1.45898         0.000808     -0.000251     -0.000251
      1.45898     10.24617      1.45898        -0.000251      0.000808     -0.000251
      1.45898      1.45898     10.24617        -0.000251     -0.000251      0.000808
     16.09835     16.09835      4.38729         0.000678      0.000678     -0.001305
     16.09835      4.38729     16.09835         0.000678     -0.001305      0.000678
     16.09835     13.17398      1.46293         0.000678      0.001305     -0.000678
     13.17398     16.09835      1.46293         0.001305      0.000678     -0.000678
      4.38729     16.09835     16.09835        -0.001305      0.000678      0.000678
     16.09835      1.46293     13.17398         0.000678     -0.000678      0.001305
     13.17398      1.46293     16.09835         0.001305     -0.000678      0.000678
      1.46293     16.09835     13.17398        -0.000678      0.000678      0.001305
      1.46293     13.17398     16.09835        -0.000678      0.001305      0.000678
      4.38729      1.46293      1.46293        -0.001305     -0.000678     -0.000678
      1.46293      4.38729      1.46293        -0.000678     -0.001305     -0.000678
      1.46293      1.46293      4.38729        -0.000678     -0.000678     -0.001305
     16.09877     16.09877     16.09877         0.000043      0.000043      0.000043
     16.09877      1.46251      1.46251         0.000043     -0.000043     -0.000043
      1.46251     16.09877      1.46251        -0.000043      0.000043     -0.000043
      1.46251      1.46251     16.09877        -0.000043     -0.000043      0.000043
      8.78064      8.78064      8.78064        -0.000000     -0.000000     -0.000000
     11.79746      8.78064      8.78064        -0.000332     -0.000000     -0.000000
      8.78064     11.79746      8.78064        -0.000000     -0.000332     -0.000000
      8.78064      8.78064     11.79746        -0.000000     -0.000000     -0.000332
      8.78064      8.78064      5.76381        -0.000000     -0.000000      0.000332
      8.78064      5.76381      8.78064        -0.000000      0.000332     -0.000000
      5.76381      8.78064      8.78064         0.000332     -0.000000     -0.000000
     11.74595     11.74595     11.74595        -0.003091     -0.003091     -0.003091
     11.70892     11.70892      5.85236        -0.000861     -0.000861      0.000861
     11.70892      5.85236     11.70892        -0.000861      0.000861     -0.000861
      5.85236     11.70892     11.70892         0.000861     -0.000861     -0.000861
     11.74595      5.81533      5.81533        -0.003091      0.003091      0.003091
      5.81533     11.74595      5.81533         0.003091     -0.003091      0.003091
      5.81533      5.81533     11.74595         0.003091      0.003091     -0.003091
      5.85236      5.85236      5.85236         0.000861      0.000861      0.000861
     14.65279     11.72304      8.78226         0.000842     -0.001210     -0.000547
     14.65279      8.78226     11.72304         0.000842     -0.000547     -0.001210
     11.72304     14.65279      8.78226        -0.001210      0.000842     -0.000547
     11.72304      8.78226     14.65279        -0.001210     -0.000547      0.000842
      8.78226     14.65279     11.72304        -0.000547      0.000842     -0.001210
      8.78226     11.72304     14.65279        -0.000547     -0.001210      0.000842
     14.65279      8.77901      5.83823         0.000842      0.000547      0.001210
     14.65279      5.83823      8.77901         0.000842      0.001210      0.000547
      8.77901     14.65279      5.83823         0.000547      0.000842      0.001210
      5.83823     14.65279      8.77901         0.001210      0.000842      0.000547
      8.77901      5.83823     14.65279         0.000547      0.001210      0.000842
      5.83823      8.77901     14.65279         0.001210      0.000547      0.000842
     11.72304      8.77901      2.90848        -0.001210      0.000547     -0.000842
      8.77901     11.72304      2.90848         0.000547     -0.001210     -0.000842
     11.72304      2.90848      8.77901        -0.001210     -0.000842      0.000547
      8.77901      2.90848     11.72304         0.000547     -0.000842     -0.001210
      2.90848     11.72304      8.77901        -0.000842     -0.001210      0.000547
      2.90848      8.77901     11.72304        -0.000842      0.000547     -0.001210
      8.78226      5.83823      2.90848        -0.000547      0.001210     -0.000842
      8.78226      2.90848      5.83823        -0.000547     -0.000842      0.001210
      5.83823      8.78226      2.90848         0.001210     -0.000547     -0.000842
      5.83823      2.90848      8.78226         0.001210     -0.000842     -0.000547
      2.90848      8.78226      5.83823        -0.000842     -0.000547      0.001210
      2.90848      5.83823      8.78226        -0.000842      0.001210     -0.000547
     14.64260     14.64260     11.71326        -0.000443     -0.000443     -0.001012
     14.64260     11.71326     14.64260        -0.000443     -0.001012     -0.000443
     11.71326     14.64260     14.64260        -0.001012     -0.000443     -0.000443
     -0.00000      8.78064      8.78064        -0.000000     -0.000000     -0.000000
     14.63625     14.63625      5.84955         0.000100      0.000100      0.000665
     14.63625      5.84955     14.63625         0.000100      0.000665      0.000100
      8.78064     -0.00000      8.78064        -0.000000     -0.000000     -0.000000
      8.78064      8.78064     -0.00000        -0.000000     -0.000000     -0.000000
      5.84955     14.63625     14.63625         0.000665      0.000100      0.000100
     14.63625     11.71172      2.92503         0.000100     -0.000665     -0.000100
     11.71172     14.63625      2.92503        -0.000665      0.000100     -0.000100
     14.63625      2.92503     11.71172         0.000100     -0.000100     -0.000665
     11.71172      2.92503     14.63625        -0.000665     -0.000100      0.000100
      2.92503     14.63625     11.71172        -0.000100      0.000100     -0.000665
     14.64260      5.84802      2.91867        -0.000443      0.001012      0.000443
      2.92503     11.71172     14.63625        -0.000100     -0.000665      0.000100
     14.64260      2.91867      5.84802        -0.000443      0.000443      0.001012
      5.84802     14.64260      2.91867         0.001012     -0.000443      0.000443
      2.91867     14.64260      5.84802         0.000443     -0.000443      0.001012
      5.84802      2.91867     14.64260         0.001012      0.000443     -0.000443
      2.91867      5.84802     14.64260         0.000443      0.001012     -0.000443
     11.71326      2.91867      2.91867        -0.001012      0.000443      0.000443
      2.91867     11.71326      2.91867         0.000443     -0.001012      0.000443
      2.91867      2.91867     11.71326         0.000443      0.000443     -0.001012
      5.84955      2.92503      2.92503         0.000665     -0.000100     -0.000100
      2.92503      5.84955      2.92503        -0.000100      0.000665     -0.000100
      2.92503      2.92503      5.84955        -0.000100     -0.000100      0.000665
      0.00095     11.71052     11.71052        -0.000524      0.000320      0.000320
     11.71052      0.00095     11.71052         0.000320     -0.000524      0.000320
     11.71052     11.71052      0.00095         0.000320      0.000320     -0.000524
     17.56033     11.71052      5.85075         0.000524      0.000320     -0.000320
     17.56033      5.85075     11.71052         0.000524     -0.000320      0.000320
     11.71052     17.56033      5.85075         0.000320      0.000524     -0.000320
     11.71052      5.85075     17.56033         0.000320     -0.000320      0.000524
      5.85075     17.56033     11.71052        -0.000320      0.000524      0.000320
      0.00095      5.85075      5.85075        -0.000524     -0.000320     -0.000320
      5.85075     11.71052     17.56033        -0.000320      0.000320      0.000524
      5.85075      0.00095      5.85075        -0.000320     -0.000524     -0.000320
      5.85075      5.85075      0.00095        -0.000320     -0.000320     -0.000524
     -0.00000     14.64385      8.78064        -0.000000      0.000636     -0.000000
     14.64385     -0.00000      8.78064         0.000636     -0.000000     -0.000000
     -0.00000      8.78064     14.64385        -0.000000     -0.000000      0.000636
     14.64385      8.78064     -0.00000         0.000636     -0.000000     -0.000000
      8.78064     -0.00000     14.64385        -0.000000     -0.000000      0.000636
      8.78064     14.64385     -0.00000        -0.000000      0.000636     -0.000000
     -0.00000      8.78064      2.91743        -0.000000     -0.000000     -0.000636
     -0.00000      2.91743      8.78064        -0.000000     -0.000636     -0.000000
      8.78064     -0.00000      2.91743        -0.000000     -0.000000     -0.000636
      2.91743     -0.00000      8.78064        -0.000636     -0.000000     -0.000000
      8.78064      2.91743     -0.00000        -0.000000     -0.000636     -0.000000
      2.91743      8.78064     -0.00000        -0.000636     -0.000000     -0.000000
      0.00042     14.63671     14.63671        -0.000825     -0.001679     -0.001679
     14.63671      0.00042     14.63671        -0.001679     -0.000825     -0.001679
     14.63671     14.63671      0.00042        -0.001679     -0.001679     -0.000825
     17.56085     14.63671      2.92456         0.000825     -0.001679      0.001679
     14.63671     17.56085      2.92456        -0.001679      0.000825      0.001679
     17.56085      2.92456     14.63671         0.000825      0.001679     -0.001679
     14.63671      2.92456     17.56085        -0.001679      0.001679      0.000825
      2.92456     17.56085     14.63671         0.001679      0.000825     -0.001679
      2.92456     14.63671     17.56085         0.001679     -0.001679      0.000825
      0.00042      2.92456      2.92456        -0.000825      0.001679      0.001679
      2.92456      0.00042      2.92456         0.001679     -0.000825      0.001679
      2.92456      2.92456      0.00042         0.001679      0.001679     -0.000825
     -0.00000     -0.00000     11.71273        -0.000000     -0.000000     -0.001101
     -0.00000     11.71273     -0.00000        -0.000000     -0.001101     -0.000000
     11.71273     -0.00000     -0.00000        -0.001101     -0.000000     -0.000000
     -0.00000     -0.00000      5.84855        -0.000000     -0.000000      0.001101
     -0.00000      5.84855     -0.00000        -0.000000      0.001101     -0.000000
      5.84855     -0.00000     -0.00000         0.001101     -0.000000     -0.000000
     -0.00000     -0.00000     -0.00000        -0.000000     -0.000000     -0.000000
 -----------------------------------------------------------------------------------
    total drift:                                0.000001      0.000001      0.000000


--------------------------------------------------------------------------------------------------------



  FREE ENERGIE OF THE ION-ELECTRON SYSTEM (eV)
  ---------------------------------------------------
  free  energy   TOTEN  =     -1047.05658053 eV

  energy  without entropy=    -1046.89605011  energy(sigma->0) =    -1046.97631532

  SIGMA =         0.10000000
  enthalpy is  TOTEN    =     -1073.59207590 eV   P V=      -26.53549537

 d Force = 0.2106179E-04[-0.262E-05, 0.447E-04]  d Energy = 0.1008823E-04 0.110E-04
 d Force =-0.5306280E-02[-0.578E-02,-0.484E-02]  d Ewald  =-0.5306326E-02 0.461E-07


--------------------------------------------------------------------------------------------------------


    POTLOK:  cpu time    0.1614: real time    0.1618


--------------------------------------------------------------------------------------------------------




--------------------------------------------------------------------------------------------------------


  
 reached required accuracy - stopping structural energy minimisation
 writing wavefunctions
     LOOP+:  cpu time 7732.3019: real time 7736.6915
    4ORBIT:  cpu time    0.0000: real time    0.0000

 total amount of memory used by VASP MPI-rank0  1431511. kBytes
=======================================================================

   base      :      30000. kBytes
   nonl-proj :    1194163. kBytes
   fftplans  :      15087. kBytes
   grid      :     137526. kBytes
   one-center:      14259. kBytes
   wavefun   :      40476. kBytes
 
  
  
 General timing and accounting informations for this job:
 ========================================================
  
                  Total CPU time used (sec):   122146.688
                            User time (sec):   121298.646
                          System time (sec):      848.040
                         Elapsed time (sec):   122194.951
  
                   Maximum memory used (kb):     2090640.
                   Average memory used (kb):           0.
  
                          Minor page faults:    650194913
                          Major page faults:           43
                 Voluntary context switches:       962760
