LAMMPS (15 Sep 2022)
Total wall time: 0:00:00
