LAMMPS (23 Jun 2022)
Total wall time: 0:00:00
