LAMMPS (4 May 2022)
Total wall time: 0:00:00
