LAMMPS (15 Sep 2022)
# simple test of uo2 with ACE product

units		metal
atom_style	atomic

neighbor	0.3 bin
neigh_modify	 every 2 delay 10 check yes

read_data       UO2_ex.data
Reading data file ...
  orthogonal box = (0 0 0) to (10.942 10.942 10.942)
  1 by 2 by 2 MPI processor grid
  reading atoms ...
  96 atoms
  read_data CPU = 0.011 seconds

mass  1 15.999
mass  2 238.0 #289

#if you want ACE to control dynamics uncomment below
#pair_style hybrid/overlay pace product zbl 4.0 4.8
#pair_coeff  * * pace UO2_pot.yace O U
#pair_coeff  1 1 zbl 8 8
#pair_coeff  1 2 zbl 8 92
#pair_coeff  2 2 zbl 92 92

pair_style  pace product
ACE version: 2021.10.25
Product evaluator is used
pair_coeff  * * UO2_pot.yace O U
Loading UO2_pot.yace
Total number of basis functions
	O: 32 (r=1) 85 (r>1)
	U: 32 (r=1) 85 (r>1)
Mapping LAMMPS atom type #1(O) -> ACE species type #0
Mapping LAMMPS atom type #2(U) -> ACE species type #1



minimize 1.0e-4 1.0e-6 100 1000
Switching to 'neigh_modify every 1 delay 0 check yes' setting during minimization
Neighbor list info ...
  update: every = 1 steps, delay = 0 steps, check = yes
  max neighbors/atom: 2000, page size: 100000
  master list distance cutoff = 6.3
  ghost atom cutoff = 6.3
  binsize = 3.15, bins = 4 4 4
  1 neighbor lists, perpetual/occasional/extra = 1 0 0
  (1) pair pace, perpetual
      attributes: full, newton on
      pair build: full/bin/atomonly
      stencil: full/bin/3d
      bin: standard
Per MPI rank memory allocation (min/avg/max) = 4.203 | 4.203 | 4.203 Mbytes
   Step          Temp          E_pair         E_mol          TotEng         Press     
         0   0              227.11787      0              227.11787      2431122      
        81   0             -673.84438      0             -673.84438      8369600.6    
Loop time of 2.66009 on 4 procs for 81 steps with 96 atoms

98.6% CPU use with 4 MPI tasks x no OpenMP threads

Minimization stats:
  Stopping criterion = energy tolerance
  Energy initial, next-to-last, final = 
      227.117865838131   -673.78023211024  -673.844378667287
  Force two-norm initial, final = 1692.1022 11.40767
  Force max component initial, final = 799.61261 2.7142169
  Final line search alpha, max atom move = 0.012438904 0.033761884
  Iterations, force evaluations = 81 157

MPI task timing breakdown:
Section |  min time  |  avg time  |  max time  |%varavg| %total
---------------------------------------------------------------
Pair    | 2.2648     | 2.3882     | 2.4458     |   4.7 | 89.78
Neigh   | 0.0034843  | 0.0036616  | 0.0037879  |   0.2 |  0.14
Comm    | 0.20479    | 0.26233    | 0.38559    |  14.2 |  9.86
Output  | 0          | 0          | 0          |   0.0 |  0.00
Modify  | 0          | 0          | 0          |   0.0 |  0.00
Other   |            | 0.005875   |            |       |  0.22

Nlocal:             24 ave          25 max          23 min
Histogram: 2 0 0 0 0 0 0 0 0 2
Nghost:            485 ave         486 max         484 min
Histogram: 2 0 0 0 0 0 0 0 0 2
Neighs:              0 ave           0 max           0 min
Histogram: 4 0 0 0 0 0 0 0 0 0
FullNghs:       1209.5 ave        1274 max        1143 min
Histogram: 2 0 0 0 0 0 0 0 0 2

Total # of neighbors = 4838
Ave neighs/atom = 50.395833
Neighbor list builds = 21
Dangerous builds = 0

velocity        all create 200 8728 loop geom
timestep        0.00025
fix            1 all nve


thermo 		10

thermo_style    custom step temp pe ke etotal


dump            0 all cfg 100 ats.*.cfg mass type xs ys zs
dump_modify     0 element O U
run		1000
Per MPI rank memory allocation (min/avg/max) = 3.082 | 3.082 | 3.082 Mbytes
   Step          Temp          PotEng         KinEng         TotEng    
        81   200           -673.84438      2.4559428     -671.38844    
        90   98.289034     -672.58596      1.2069612     -671.379      
       100   91.867867     -672.50674      1.1281111     -671.37863    
       110   100.17997     -672.6076       1.2301813     -671.37742    
       120   121.24966     -672.86684      1.4889112     -671.37793    
       130   108.7         -672.71175      1.3348049     -671.37694    
       140   110.90327     -672.73901      1.3618604     -671.37715    
       150   129.45706     -672.96785      1.5896957     -671.37815    
       160   120.47552     -672.8572       1.479405      -671.3778     
       170   117.66464     -672.8222       1.4448881     -671.37731    
       180   122.76787     -672.88404      1.5075543     -671.37649    
       190   126.114       -672.92583      1.5486438     -671.37719    
       200   119.96899     -672.85106      1.4731848     -671.37787    
       210   134.26499     -673.02776      1.6487356     -671.37902    
       220   115.03821     -672.78953      1.4126363     -671.3769     
       230   114.22057     -672.7804       1.4025959     -671.37781    
       240   113.06714     -672.76719      1.3884321     -671.37876    
       250   120.5461      -672.85996      1.4802717     -671.37969    
       260   120.39031     -672.85799      1.4783586     -671.37964    
       270   112.84329     -672.76444      1.3856833     -671.37876    
       280   113.16749     -672.76831      1.3896644     -671.37864    
       290   114.65437     -672.78585      1.4079229     -671.37793    
       300   108.99372     -672.71462      1.3384117     -671.37621    
       310   109.81667     -672.72363      1.3485173     -671.37511    
       320   114.55814     -672.78201      1.4067411     -671.37527    
       330   130.32362     -672.97821      1.6003367     -671.37788    
       340   123.58505     -672.89536      1.5175891     -671.37777    
       350   124.51584     -672.90662      1.5290188     -671.3776     
       360   120.28531     -672.85468      1.4770692     -671.37761    
       370   117.44475     -672.81982      1.4421879     -671.37763    
       380   117.1896      -672.81705      1.4390547     -671.378      
       390   113.11606     -672.76654      1.3890328     -671.37751    
       400   111.00117     -672.74079      1.3630626     -671.37773    
       410   119.56535     -672.84713      1.4682282     -671.3789     
       420   116.32764     -672.80673      1.4284701     -671.37826    
       430   112.12403     -672.75412      1.3768509     -671.37727    
       440   96.480432     -672.56053      1.1847521     -671.37578    
       450   111.69921     -672.74814      1.3716343     -671.3765     
       460   116.96738     -672.81401      1.4363259     -671.37769    
       470   103.24412     -672.64486      1.2678082     -671.37705    
       480   117.12094     -672.81577      1.4382116     -671.37756    
       490   116.392       -672.80616      1.4292604     -671.3769     
       500   115.46045     -672.79497      1.4178213     -671.37714    
       510   107.00735     -672.69096      1.3140196     -671.37694    
       520   133.01625     -673.01211      1.6334015     -671.37871    
       530   126.44391     -672.93078      1.552695      -671.37809    
       540   134.02142     -673.02477      1.6457447     -671.37903    
       550   119.79255     -672.84938      1.4710183     -671.37836    
       560   113.23666     -672.76809      1.3905138     -671.37757    
       570   103.47283     -672.64603      1.2706167     -671.37541    
       580   118.22704     -672.82845      1.4517942     -671.37665    
       590   119.0015      -672.83912      1.4613044     -671.37782    
       600   102.7148      -672.63845      1.2613084     -671.37714    
       610   115.03732     -672.79099      1.4126254     -671.37837    
       620   119.64376     -672.84697      1.4691912     -671.37778    
       630   125.01751     -672.91333      1.5351792     -671.37815    
       640   117.35128     -672.81904      1.4410401     -671.378      
       650   103.62888     -672.64973      1.272533      -671.3772     
       660   118.05635     -672.828        1.4496981     -671.3783     
       670   128.10615     -672.95237      1.5731069     -671.37926    
       680   122.41484     -672.88242      1.5032192     -671.3792     
       690   127.16078     -672.93968      1.561498      -671.37818    
       700   115.84526     -672.79897      1.4225466     -671.37643    
       710   118.97943     -672.83812      1.4610334     -671.37708    
       720   110.97174     -672.73886      1.3627012     -671.37616    
       730   112.80438     -672.76133      1.3852055     -671.37612    
       740   113.61248     -672.77248      1.3951287     -671.37736    
       750   106.92817     -672.68988      1.3130473     -671.37684    
       760   120.75111     -672.8603       1.4827891     -671.37751    
       770   107.57393     -672.69818      1.3209771     -671.3772     
       780   111.22677     -672.74303      1.3658329     -671.3772     
       790   109.86596     -672.72551      1.3491226     -671.37639    
       800   127.15151     -672.93947      1.5613841     -671.37809    
       810   116.75813     -672.81192      1.4337564     -671.37816    
       820   109.92658     -672.72713      1.3498669     -671.37727    
       830   107.23101     -672.69314      1.3167661     -671.37638    
       840   115.53546     -672.79596      1.4187424     -671.37722    
       850   112.85296     -672.76216      1.385802      -671.37636    
       860   119.06692     -672.8383       1.4621078     -671.3762     
       870   116.44699     -672.80598      1.4299357     -671.37604    
       880   114.11543     -672.77668      1.4013048     -671.37538    
       890   123.15261     -672.88859      1.5122788     -671.37631    
       900   98.541278     -672.58524      1.2100587     -671.37518    
       910   104.73586     -672.66141      1.2861263     -671.37528    
       920   108.8118      -672.71258      1.3361778     -671.3764     
       930   118.2693      -672.83046      1.4523131     -671.37815    
       940   126.42094     -672.93111      1.5524129     -671.3787     
       950   103.13257     -672.64305      1.2664384     -671.37661    
       960   112.38916     -672.7567       1.3801068     -671.37659    
       970   116.84329     -672.81149      1.4348021     -671.37669    
       980   108.4148      -672.70707      1.3313027     -671.37577    
       990   117.50284     -672.81945      1.4429013     -671.37655    
      1000   103.41488     -672.64544      1.2699052     -671.37554    
      1010   116.0234      -672.80134      1.4247341     -671.37661    
      1020   112.19886     -672.7538       1.3777698     -671.37603    
      1030   126.14988     -672.92551      1.5490844     -671.37643    
      1040   114.0432      -672.77576      1.4004178     -671.37534    
      1050   103.10151     -672.64198      1.2660571     -671.37592    
      1060   106.99451     -672.69137      1.3138619     -671.37751    
      1070   118.19675     -672.82873      1.4514222     -671.37731    
      1080   117.44725     -672.81834      1.4422187     -671.37612    
      1081   120.45118     -672.85588      1.4791061     -671.37677    
Loop time of 14.8773 on 4 procs for 1000 steps with 96 atoms

Performance: 1.452 ns/day, 16.530 hours/ns, 67.217 timesteps/s
98.6% CPU use with 4 MPI tasks x no OpenMP threads

MPI task timing breakdown:
Section |  min time  |  avg time  |  max time  |%varavg| %total
---------------------------------------------------------------
Pair    | 13.393     | 14.035     | 14.741     |  12.8 | 94.34
Neigh   | 0          | 0          | 0          |   0.0 |  0.00
Comm    | 0.11092    | 0.8174     | 1.4594     |  52.9 |  5.49
Output  | 0.010679   | 0.01203    | 0.015944   |   2.1 |  0.08
Modify  | 0.0032161  | 0.0035257  | 0.0036954  |   0.3 |  0.02
Other   |            | 0.009717   |            |       |  0.07

Nlocal:             24 ave          25 max          23 min
Histogram: 1 0 0 0 0 2 0 0 0 1
Nghost:            485 ave         486 max         484 min
Histogram: 1 0 0 0 0 2 0 0 0 1
Neighs:              0 ave           0 max           0 min
Histogram: 4 0 0 0 0 0 0 0 0 0
FullNghs:         1208 ave        1263 max        1143 min
Histogram: 1 0 0 0 0 2 0 0 0 1

Total # of neighbors = 4832
Ave neighs/atom = 50.333333
Neighbor list builds = 0
Dangerous builds = 0
Total wall time: 0:00:18
