 vasp.5.4.4.18Apr17-6-g9f103f2a35 (build Aug 01 2017 10:32:50) complex          
  
 executed on             LinuxIFC date 2018.05.16  15:27:08
 running on  576 total cores
 distrk:  each k-point on  576 cores,    1 groups
 distr:  one band on NCORES_PER_BAND=   1 cores,  576 groups


--------------------------------------------------------------------------------------------------------


 INCAR:
 POTCAR:    PAW In_d_GW 15Mar2013                 
 POTCAR:    PAW P_GW 19Mar2012                    

 ----------------------------------------------------------------------------- 
|                                                                             |
|           W    W    AA    RRRRR   N    N  II  N    N   GGGG   !!!           |
|           W    W   A  A   R    R  NN   N  II  NN   N  G    G  !!!           |
|           W    W  A    A  R    R  N N  N  II  N N  N  G       !!!           |
|           W WW W  AAAAAA  RRRRR   N  N N  II  N  N N  G  GGG   !            |
|           WW  WW  A    A  R   R   N   NN  II  N   NN  G    G                |
|           W    W  A    A  R    R  N    N  II  N    N   GGGG   !!!           |
|                                                                             |
|      For optimal performance we recommend to set                            |
|        NCORE= 4 - approx SQRT( number of cores)                             |
|      NCORE specifies how many cores store one orbital (NPAR=cpu/NCORE).     |
|      This setting can  greatly improve the performance of VASP for DFT.     |
|      The default,   NCORE=1            might be grossly inefficient         |
|      on modern multi-core architectures or massively parallel machines.     |
|      Do your own testing !!!!                                               |
|      Unfortunately you need to use the default for GW and RPA calculations. |
|      (for HF NCORE is supported but not extensively tested yet)             |
|                                                                             |
 ----------------------------------------------------------------------------- 

 POTCAR:    PAW In_d_GW 15Mar2013                 
   VRHFIN =In: s2p1                                                             
   LEXCH  = CA                                                                  
   EATOM  =  1579.9794 eV,  116.1252 Ry                                         
                                                                                
   TITEL  = PAW In_d_GW 15Mar2013                                               
   LULTRA =        F    use ultrasoft PP ?                                      
   IUNSCR =        1    unscreen: 0-lin 1-nonlin 2-no                           
   RPACOR =    2.200    partial core radius                                     
   POMASS =  114.820; ZVAL   =   13.000    mass and valenz                      
   RCORE  =    2.500    outmost cutoff radius                                   
   RWIGS  =    2.500; RWIGS  =    1.323    wigner-seitz radius (au A)           
   ENMAX  =  278.582; ENMIN  =  208.936 eV                                      
   RCLOC  =    1.602    cutoff for local pot                                    
   LCOR   =        T    correct aug charges                                     
   LPAW   =        T    paw PP                                                  
   EAUG   =  662.551                                                            
   DEXC   =    0.000                                                            
   RMAX   =    2.552    core radius for proj-oper                               
   RAUG   =    1.300    factor for augmentation sphere                          
   RDEP   =    2.630    radius for radial grids                                 
   RDEPT  =    2.023    core radius for aug-charge                              
                                                                                
   Atomic configuration                                                         
   12 entries                                                                   
     n  l   j            E        occ.                                          
     1  0  0.50    -27589.7837   2.0000                                         
     2  0  0.50     -4136.3979   2.0000                                         
     2  1  1.50     -3718.7207   6.0000                                         
     3  0  0.50      -784.7368   2.0000                                         
     3  1  1.50      -647.3912   6.0000                                         
     3  2  2.50      -432.7327  10.0000                                         
     4  0  0.50      -119.0564   2.0000                                         
     4  1  1.50       -77.8989   6.0000                                         
     4  2  2.50       -18.7494  10.0000                                         
     5  0  0.50        -8.4628   2.0000                                         
     5  1  0.50        -2.7047   1.0000                                         
     4  3  2.50        -2.7212   0.0000                                         
   Description                                                                  
     l       E           TYP  RCUT    TYP  RCUT                                 
     2    -18.7494033     23  2.300                                             
     2    -20.1099859     23  2.300                                             
     2     68.0291300     23  2.300                                             
     0     -8.4627526     23  1.900                                             
     0     81.6349560     23  1.900                                             
     1     -2.7046683     23  2.100                                             
     1     81.6349560     23  2.300                                             
     3     20.4087390     23  2.500                                             
     3     40.8174780     23  2.500                                             
  local pseudopotential read in
  partial core-charges read in
  partial kinetic energy density read in
  kinetic energy density of atom read in
  atomic valenz-charges read in
  non local Contribution for L=           2  read in
    real space projection operators read in
  non local Contribution for L=           2  read in
    real space projection operators read in
  non local Contribution for L=           2  read in
    real space projection operators read in
  non local Contribution for L=           0  read in
    real space projection operators read in
  non local Contribution for L=           0  read in
    real space projection operators read in
  non local Contribution for L=           1  read in
    real space projection operators read in
  non local Contribution for L=           1  read in
    real space projection operators read in
  non local Contribution for L=           3  read in
    real space projection operators read in
  non local Contribution for L=           3  read in
    real space projection operators read in
    PAW grid and wavefunctions read in
 
   number of l-projection  operators is LMAX  =           9
   number of lm-projection operators is LMMAX =          37
 
 POTCAR:    PAW P_GW 19Mar2012                    
   VRHFIN =P : s2p3                                                             
   LEXCH  = CA                                                                  
   EATOM  =   176.5121 eV,   12.9733 Ry                                         
                                                                                
   TITEL  = PAW P_GW 19Mar2012                                                  
   LULTRA =        F    use ultrasoft PP ?                                      
   IUNSCR =        1    unscreen: 0-lin 1-nonlin 2-no                           
   RPACOR =    1.400    partial core radius                                     
   POMASS =   30.974; ZVAL   =    5.000    mass and valenz                      
   RCORE  =    2.000    outmost cutoff radius                                   
   RWIGS  =    1.900; RWIGS  =    1.005    wigner-seitz radius (au A)           
   ENMAX  =  255.155; ENMIN  =  191.366 eV                                      
   ICORE  =        3    local potential                                         
   LCOR   =        T    correct aug charges                                     
   LPAW   =        T    paw PP                                                  
   EAUG   =  499.732                                                            
   DEXC   =    0.000                                                            
   RMAX   =    2.047    core radius for proj-oper                               
   RAUG   =    1.300    factor for augmentation sphere                          
   RDEP   =    2.059    radius for radial grids                                 
   RDEPT  =    1.900    core radius for aug-charge                              
                                                                                
   Atomic configuration                                                         
    7 entries                                                                   
     n  l   j            E        occ.                                          
     1  0  0.50     -2072.7761   2.0000                                         
     2  0  0.50      -172.9483   2.0000                                         
     2  1  1.50      -124.4644   6.0000                                         
     3  0  0.50       -14.0086   2.0000                                         
     3  1  0.50        -5.6037   3.0000                                         
     3  2  1.50        -6.8029   0.0000                                         
     4  3  2.50        -1.3606   0.0000                                         
   Description                                                                  
     l       E           TYP  RCUT    TYP  RCUT                                 
     0    -14.0086211     23  1.900                                             
     0    102.0436950     23  1.900                                             
     1     -5.6037292     23  1.900                                             
     1    102.0436950     23  1.900                                             
     2     -8.1634956     23  2.000                                             
     2     81.6349560     23  2.000                                             
     3     27.2116520     23  2.000                                             
  local pseudopotential read in
  partial core-charges read in
  partial kinetic energy density read in
  kinetic energy density of atom read in
  atomic valenz-charges read in
  non local Contribution for L=           0  read in
    real space projection operators read in
  non local Contribution for L=           0  read in
    real space projection operators read in
  non local Contribution for L=           1  read in
    real space projection operators read in
  non local Contribution for L=           1  read in
    real space projection operators read in
  non local Contribution for L=           2  read in
    real space projection operators read in
  non local Contribution for L=           2  read in
    real space projection operators read in
    PAW grid and wavefunctions read in
 
   number of l-projection  operators is LMAX  =           6
   number of lm-projection operators is LMMAX =          18
 

 ----------------------------------------------------------------------------- 
|                                                                             |
|  ADVICE TO THIS USER RUNNING 'VASP/VAMP'   (HEAR YOUR MASTER'S VOICE ...):  |
|                                                                             |
|      You have a (more or less) 'large supercell' and for larger cells       |
|      it might be more efficient to use real space projection opertators     |
|      So try LREAL= Auto  in the INCAR   file.                               |
|      Mind:          For very  accurate calculation you might also keep the  |
|      reciprocal projection scheme          (i.e. LREAL=.FALSE.)             |
|                                                                             |
 ----------------------------------------------------------------------------- 

  PAW In_d_GW 15Mar2013                 :
 energy of atom  1       EATOM=-1579.9794
 kinetic energy error for atom=    0.0027 (will be added to EATOM!!)
  PAW P_GW 19Mar2012                    :
 energy of atom  2       EATOM= -176.5121
 kinetic energy error for atom=    0.0005 (will be added to EATOM!!)
 
 
 POSCAR: Initial State for aP_0_C3vfar_tdC_sc3k2c
  positions in direct lattice
  No initial velocities read in
 exchange correlation table for  LEXCH =        2
   RHO(1)=    0.500       N(1)  =     2000
   RHO(2)=  100.500       N(2)  =     4000
 


--------------------------------------------------------------------------------------------------------


 ion  position               nearest neighbor table
   1  0.457  0.457  0.457-   3 2.26   4 2.26   5 2.26
   2  0.572  0.572  0.572-   6 2.51   7 2.51   8 2.51
   3  0.575  0.421  0.421-   1 2.26  15 2.58  10 2.61   9 2.61
   4  0.421  0.575  0.421-   1 2.26  16 2.58  13 2.61  11 2.61
   5  0.421  0.421  0.575-   1 2.26  17 2.58  14 2.61  12 2.61
   6  0.662  0.662  0.507-   2 2.51  36 2.55  18 2.56  20 2.56
   7  0.662  0.507  0.662-   2 2.51  37 2.55  21 2.56  19 2.56
   8  0.507  0.662  0.662-   2 2.51  38 2.55  23 2.56  22 2.56
   9  0.665  0.504  0.336-  18 2.52  24 2.52  39 2.56   3 2.61
  10  0.665  0.336  0.504-  19 2.52  25 2.52  40 2.56   3 2.61
  11  0.504  0.665  0.336-  20 2.52  24 2.52  41 2.56   4 2.61
  12  0.504  0.336  0.665-  21 2.52  25 2.52  43 2.56   5 2.61
  13  0.336  0.665  0.504-  22 2.52  26 2.52  42 2.56   4 2.61
  14  0.336  0.504  0.665-  23 2.52  26 2.52  44 2.56   5 2.61
  15  0.500  0.332  0.332-  45 2.53  28 2.54  27 2.54   3 2.58
  16  0.332  0.500  0.332-  46 2.53  29 2.54  27 2.54   4 2.58
  17  0.332  0.332  0.500-  47 2.53  29 2.54  28 2.54   5 2.58
  18  0.749  0.585  0.419-   9 2.52  30 2.53  51 2.53   6 2.56
  19  0.749  0.419  0.585-  10 2.52  30 2.53  53 2.53   7 2.56
  20  0.585  0.749  0.419-  11 2.52  31 2.53  52 2.53   6 2.56
  21  0.585  0.419  0.749-  12 2.52  32 2.53  54 2.53   7 2.56
  22  0.419  0.749  0.585-  13 2.52  31 2.53  55 2.53   8 2.56
  23  0.419  0.585  0.749-  14 2.52  32 2.53  56 2.53   8 2.56
  24  0.583  0.583  0.249-   9 2.52  11 2.52  58 2.54  33 2.54
  25  0.583  0.249  0.583-  10 2.52  12 2.52  59 2.54  34 2.54
  26  0.249  0.583  0.583-  13 2.52  14 2.52  62 2.54  35 2.54
  27  0.416  0.416  0.249-  33 2.53  69 2.53  15 2.54  16 2.54
  28  0.416  0.249  0.416-  34 2.53  70 2.53  15 2.54  17 2.54
  29  0.249  0.416  0.416-  35 2.53  71 2.53  16 2.54  17 2.54
  30  0.833  0.500  0.500-  18 2.53  19 2.53  75 2.53  72 2.54
  31  0.500  0.833  0.500-  20 2.53  22 2.53  78 2.53  73 2.54
  32  0.500  0.500  0.833-  21 2.53  23 2.53  79 2.53  74 2.54
  33  0.499  0.499  0.166-  27 2.53  81 2.53  82 2.53  24 2.54
  34  0.499  0.166  0.499-  28 2.53  83 2.53  84 2.53  25 2.54
  35  0.166  0.499  0.499-  29 2.53  85 2.53  86 2.53  26 2.54
  36  0.749  0.749  0.584-  88 2.53  49 2.53  48 2.53   6 2.55
  37  0.749  0.584  0.749-  89 2.53  50 2.53  48 2.53   7 2.55
  38  0.584  0.749  0.749-  90 2.53  50 2.53  49 2.53   8 2.55
  39  0.747  0.417  0.253-  57 2.54  63 2.54  91 2.56   9 2.56
  40  0.747  0.253  0.417-  57 2.54  64 2.54  92 2.56  10 2.56
  41  0.417  0.747  0.253-  60 2.54  65 2.54  93 2.56  11 2.56
  42  0.253  0.747  0.417-  60 2.54  66 2.54  95 2.56  13 2.56
  43  0.417  0.253  0.747-  61 2.54  67 2.54  94 2.56  12 2.56
  44  0.253  0.417  0.747-  61 2.54  68 2.54  96 2.56  14 2.56
  45  0.584  0.249  0.249-  15 2.53  63 2.53  64 2.53  97 2.54
  46  0.249  0.584  0.249-  16 2.53  65 2.53  66 2.53  98 2.54
  47  0.249  0.249  0.584-  17 2.53  67 2.53  68 2.53  99 2.54
  48  0.833  0.667  0.667-  36 2.53  37 2.53 136 2.54  72 2.54
  49  0.667  0.833  0.667-  36 2.53  38 2.53 137 2.54  73 2.54
  50  0.667  0.667  0.833-  37 2.53  38 2.53 138 2.54  74 2.54
  51  0.833  0.667  0.334-  18 2.53 100 2.53  76 2.54 106 2.54
  52  0.667  0.833  0.334-  20 2.53 101 2.53  76 2.54 108 2.54
  53  0.833  0.334  0.667-  19 2.53 102 2.53  77 2.54 107 2.54
  54  0.667  0.334  0.833-  21 2.53 103 2.53  77 2.54 109 2.54
  55  0.334  0.833  0.667-  22 2.53 104 2.53  80 2.54 110 2.54
  56  0.334  0.667  0.833-  23 2.53 105 2.53  80 2.54 111 2.54
  57  0.833  0.334  0.334-  75 2.53  40 2.54  39 2.54 139 2.54
  58  0.667  0.667  0.166- 112 2.53 113 2.53  76 2.53  24 2.54
  59  0.667  0.166  0.667- 114 2.53 115 2.53  77 2.53  25 2.54
  60  0.334  0.833  0.334-  78 2.53  42 2.54  41 2.54 140 2.54
  61  0.334  0.334  0.833-  79 2.53  44 2.54  43 2.54 141 2.54
  62  0.166  0.667  0.667- 117 2.53 116 2.53  80 2.53  26 2.54
  63  0.667  0.334  0.167-  45 2.53  81 2.53 142 2.54  39 2.54
  64  0.667  0.167  0.334-  45 2.53  83 2.53 143 2.54  40 2.54
  65  0.334  0.667  0.167-  46 2.53  82 2.53 144 2.54  41 2.54
  66  0.167  0.667  0.334-  46 2.53  85 2.53 145 2.54  42 2.54
  67  0.334  0.167  0.667-  47 2.53  84 2.53 146 2.54  43 2.54
  68  0.167  0.334  0.667-  47 2.53  86 2.53 147 2.54  44 2.54
  69  0.333  0.333  0.166-  27 2.53 118 2.53 120 2.53  87 2.54
  70  0.333  0.166  0.333-  28 2.53 119 2.53 121 2.53  87 2.54
  71  0.166  0.333  0.333-  29 2.53 122 2.53 123 2.53  87 2.54
  72  0.916  0.583  0.583- 125 2.53 124 2.53  30 2.54  48 2.54
  73  0.583  0.916  0.583- 126 2.53 127 2.53  31 2.54  49 2.54
  74  0.583  0.583  0.916- 128 2.53 129 2.53  32 2.54  50 2.54
  75  0.917  0.417  0.417-  57 2.53 130 2.53 131 2.53  30 2.53
  76  0.750  0.750  0.250-  58 2.53 149 2.54  51 2.54  52 2.54
  77  0.750  0.250  0.750-  59 2.53 150 2.54  53 2.54  54 2.54
  78  0.417  0.917  0.417-  60 2.53 132 2.53 133 2.53  31 2.53
  79  0.417  0.417  0.917-  61 2.53 134 2.53 135 2.53  32 2.53
  80  0.250  0.750  0.750-  62 2.53 151 2.54  55 2.54  56 2.54
  81  0.583  0.417  0.083-  33 2.53  63 2.53 134 2.54 128 2.54
  82  0.417  0.583  0.083-  33 2.53  65 2.53 135 2.54 129 2.54
  83  0.583  0.083  0.417-  34 2.53  64 2.53 132 2.54 126 2.54
  84  0.417  0.083  0.583-  34 2.53  67 2.53 133 2.54 127 2.54
  85  0.083  0.583  0.417-  35 2.53  66 2.53 130 2.54 124 2.54
  86  0.083  0.417  0.583-  35 2.53  68 2.53 131 2.54 125 2.54
  87  0.250  0.250  0.250- 155 2.53  70 2.54  71 2.54  69 2.54
  88  0.832  0.832  0.500-  36 2.53 100 2.54 101 2.54 156 2.54
  89  0.832  0.500  0.832-  37 2.53 102 2.54 103 2.54 157 2.54
  90  0.500  0.832  0.832-  38 2.53 104 2.54 105 2.54 158 2.54
  91  0.832  0.500  0.168- 112 2.53 106 2.53 159 2.55  39 2.56
  92  0.832  0.168  0.500- 114 2.53 107 2.53 160 2.55  40 2.56
  93  0.500  0.832  0.168- 113 2.53 108 2.53 161 2.55  41 2.56
  94  0.500  0.168  0.832- 115 2.53 109 2.53 163 2.55  43 2.56
  95  0.168  0.832  0.500- 116 2.53 110 2.53 162 2.55  42 2.56
  96  0.168  0.500  0.832- 117 2.53 111 2.53 164 2.55  44 2.56
  97  0.500  0.166  0.166- 165 2.53 119 2.53 118 2.53  45 2.54
  98  0.166  0.500  0.166- 166 2.53 122 2.53 120 2.53  46 2.54
  99  0.166  0.166  0.500- 167 2.53 121 2.53 123 2.53  47 2.54
 100  0.917  0.750  0.417- 174 2.53  51 2.53 124 2.53  88 2.54
 101  0.750  0.917  0.417- 175 2.53  52 2.53 126 2.53  88 2.54
 102  0.917  0.417  0.750- 176 2.53  53 2.53 125 2.53  89 2.54
 103  0.750  0.417  0.917- 177 2.53  54 2.53 128 2.53  89 2.54
 104  0.417  0.917  0.750- 179 2.53  55 2.53 127 2.53  90 2.54
 105  0.417  0.750  0.917- 180 2.53  56 2.53 129 2.53  90 2.54
 106  0.916  0.583  0.250- 130 2.53  91 2.53 178 2.54  51 2.54
 107  0.916  0.250  0.583- 131 2.53  92 2.53 182 2.54  53 2.54
 108  0.583  0.916  0.250-  93 2.53  52 2.54
 109  0.583  0.250  0.916-  94 2.53  54 2.54
 110  0.250  0.916  0.583-  95 2.53  55 2.54
 111  0.250  0.583  0.916-  96 2.53  56 2.54
 112  0.750  0.583  0.083-  58 2.53  91 2.53
 113  0.583  0.750  0.083-  58 2.53  93 2.53
 114  0.750  0.083  0.583-  59 2.53  92 2.53
 115  0.583  0.083  0.750-  59 2.53  94 2.53
 116  0.083  0.750  0.583-  62 2.53  95 2.53
 117  0.083  0.583  0.750-  62 2.53  96 2.53
 118  0.417  0.250  0.083-  69 2.53  97 2.53
 119  0.417  0.083  0.250-  70 2.53  97 2.53
 120  0.250  0.417  0.083-  69 2.53  98 2.53
 121  0.250  0.083  0.417-  70 2.53  99 2.53
 122  0.083  0.417  0.250-  71 2.53  98 2.53
 123  0.083  0.250  0.417-  71 2.53  99 2.53
 124  1.000  0.667  0.500-  72 2.53 100 2.53  85 2.54
 125  1.000  0.500  0.667-  72 2.53 102 2.53  86 2.54
 126  0.667  1.000  0.500-  73 2.53 101 2.53  83 2.54
 127  0.500  1.000  0.667-  73 2.53 104 2.53  84 2.54
 128  0.667  0.500  1.000-  74 2.53 103 2.53  81 2.54
 129  0.500  0.667  1.000-  74 2.53 105 2.53  82 2.54
 130  1.000  0.500  0.333- 106 2.53  75 2.53  85 2.54
 131  1.000  0.333  0.500- 107 2.53  75 2.53  86 2.54
 132  0.500  1.000  0.333-  78 2.53  83 2.54
 133  0.333  1.000  0.500-  78 2.53  84 2.54
 134  0.500  0.333  1.000-  79 2.53  81 2.54
 135  0.333  0.500  1.000-  79 2.53  82 2.54
 136  0.917  0.750  0.750-  48 2.54
 137  0.750  0.917  0.750-  49 2.54
 138  0.750  0.750  0.917-  50 2.54
 139  0.916  0.250  0.250-  57 2.54
 140  0.250  0.916  0.250-  60 2.54
 141  0.250  0.250  0.916-  61 2.54
 142  0.750  0.250  0.083-  63 2.54
 143  0.750  0.083  0.250-  64 2.54
 144  0.250  0.750  0.083-  65 2.54
 145  0.083  0.750  0.250-  66 2.54
 146  0.250  0.083  0.750-  67 2.54
 147  0.083  0.250  0.750-  68 2.54
 148  0.833  0.833  0.833-
 149  0.833  0.833  0.167-  76 2.54
 150  0.833  0.167  0.833-  77 2.54
 151  0.167  0.833  0.833-  80 2.54
 152  0.833  0.167  0.167-
 153  0.167  0.833  0.167-
 154  0.167  0.167  0.833-
 155  0.167  0.167  0.167-  87 2.53
 156  0.916  0.916  0.583-  88 2.54
 157  0.916  0.583  0.916-  89 2.54
 158  0.583  0.916  0.916-  90 2.54
 159  0.916  0.417  0.084-  91 2.55
 160  0.916  0.084  0.417-  92 2.55
 161  0.417  0.916  0.084-  93 2.55
 162  0.084  0.916  0.417-  95 2.55
 163  0.417  0.084  0.916-  94 2.55
 164  0.084  0.417  0.916-  96 2.55
 165  0.583  0.083  0.083-  97 2.53
 166  0.083  0.583  0.083-  98 2.53
 167  0.083  0.083  0.583-  99 2.53
 168  0.000  0.834  0.667-
 169  0.000  0.667  0.834-
 170  0.834  0.000  0.667-
 171  0.834  0.667  0.000-
 172  0.667  0.000  0.834-
 173  0.667  0.834  0.000-
 174  1.000  0.833  0.334- 100 2.53
 175  0.833  1.000  0.334- 101 2.53
 176  1.000  0.334  0.833- 102 2.53
 177  0.833  0.334  1.000- 103 2.53
 178  1.000  0.666  0.167- 106 2.54
 179  0.334  1.000  0.833- 104 2.53
 180  0.334  0.833  1.000- 105 2.53
 181  0.666  1.000  0.167-
 182  1.000  0.167  0.666- 107 2.54
 183  0.666  0.167  1.000-
 184  0.999  0.333  0.167-
 185  0.167  1.000  0.666-
 186  0.999  0.167  0.333-
 187  0.167  0.666  1.000-
 188  0.333  0.999  0.167-
 189  0.167  0.999  0.333-
 190  0.333  0.167  0.999-
 191  0.167  0.333  0.999-
 192  0.917  0.917  0.250-
 193  0.917  0.250  0.917-
 194  0.917  0.750  0.084-
 195  0.250  0.917  0.917-
 196  0.750  0.917  0.084-
 197  0.917  0.084  0.750-
 198  0.750  0.084  0.917-
 199  0.084  0.917  0.750-
 200  0.084  0.750  0.917-
 201  0.250  0.083  0.083-
 202  0.083  0.250  0.083-
 203  0.083  0.083  0.250-
 204  1.000  1.000  0.500-
 205  1.000  0.500  1.000-
 206  0.500  1.000  1.000-
 207  0.917  0.917  0.917-
 208  0.917  0.083  0.083-
 209  0.083  0.917  0.083-
 210  0.083  0.083  0.917-
 211  0.000  0.000  0.833-
 212  0.000  0.833  0.000-
 213  0.833  0.000  0.000-
 214  1.000  1.000  0.167-
 215  1.000  0.167  1.000-
 216  0.167  1.000  1.000-
 
  LATTYP: Found a simple cubic cell.
 ALAT       =    17.5612749176
  
  Lattice vectors:
  
 A1 = (  17.5612749176,   0.0000000000,   0.0000000000)
 A2 = (   0.0000000000,  17.5612749176,   0.0000000000)
 A3 = (   0.0000000000,   0.0000000000,  17.5612749176)


Analysis of symmetry for initial positions (statically):
=====================================================================
 Subroutine PRICEL returns:
 Original cell was already a primitive cell.
 

 Routine SETGRP: Setting up the symmetry group for a 
 simple cubic supercell.


 Subroutine GETGRP returns: Found  2 space group operations
 (whereof  2 operations were pure point group operations)
 out of a pool of 48 trial point group operations.


The static configuration has the point symmetry C_1h.


Analysis of symmetry for dynamics (positions and initial velocities):
=====================================================================
 Subroutine PRICEL returns:
 Original cell was already a primitive cell.
 

 Routine SETGRP: Setting up the symmetry group for a 
 simple cubic supercell.


 Subroutine GETGRP returns: Found  2 space group operations
 (whereof  2 operations were pure point group operations)
 out of a pool of 48 trial point group operations.


The dynamic configuration has the point symmetry C_1h.


 Subroutine INISYM returns: Found  2 space group operations
 (whereof  2 operations are pure point group operations),
 and found     1 'primitive' translations

 
 
 KPOINTS: K-Points                                

Automatic generation of k-mesh.
Space group operators:
 irot       det(A)        alpha          n_x          n_y          n_z        tau_x        tau_y        tau_z
    1     1.000000     0.000000     1.000000     0.000000     0.000000     0.000000     0.000000     0.000000
    2    -1.000000   180.000000     0.000000    -0.707107     0.707107     0.000000     0.000000     0.000000
 
 Subroutine IBZKPT returns following result:
 ===========================================
 
 Found     10 irreducible k-points:
 
 Following reciprocal coordinates:
            Coordinates               Weight
  0.000000  0.000000  0.000000      1.000000
  0.333333  0.000000  0.000000      2.000000
  0.000000  0.333333  0.000000      4.000000
  0.333333  0.333333  0.000000      4.000000
 -0.333333  0.333333  0.000000      4.000000
  0.000000  0.333333  0.333333      2.000000
  0.333333  0.333333  0.333333      2.000000
 -0.333333  0.333333  0.333333      2.000000
  0.000000 -0.333333  0.333333      2.000000
  0.333333 -0.333333  0.333333      4.000000
 
 Following cartesian coordinates:
            Coordinates               Weight
  0.000000  0.000000  0.000000      1.000000
  0.018981  0.000000  0.000000      2.000000
  0.000000  0.018981  0.000000      4.000000
  0.018981  0.018981  0.000000      4.000000
 -0.018981  0.018981  0.000000      4.000000
  0.000000  0.018981  0.018981      2.000000
  0.018981  0.018981  0.018981      2.000000
 -0.018981  0.018981  0.018981      2.000000
  0.000000 -0.018981  0.018981      2.000000
  0.018981 -0.018981  0.018981      4.000000
 


--------------------------------------------------------------------------------------------------------




 Dimension of arrays:
   k-points           NKPTS =     10   k-points in BZ     NKDIM =     10   number of bands    NBANDS=   1728
   number of dos      NEDOS =    301   number of ions     NIONS =    216
   non local maximal  LDIM  =      9   non local SUM 2l+1 LMDIM =     37
   total plane-waves  NPLWV = ******
   max r-space proj   IRMAX =      1   max aug-charges    IRDMAX=   7705
   dimension x,y,z NGX =   150 NGY =  150 NGZ =  150
   dimension x,y,z NGXF=   196 NGYF=  196 NGZF=  196
   support grid    NGXF=   196 NGYF=  196 NGZF=  196
   ions per type =             107 109
   NGX,Y,Z   is equivalent  to a cutoff of  14.20, 14.20, 14.20 a.u.
   NGXF,Y,Z  is equivalent  to a cutoff of  18.55, 18.55, 18.55 a.u.

 SYSTEM =  unknown system                          
 POSCAR =  Initial State for aP_0_C3vfar_tdC_sc3k2c

 Startparameter for this run:
   NWRITE =      2    write-flag & timer
   PREC   = high      normal or accurate (medium, high low for compatibility)
   ISTART =      0    job   : 0-new  1-cont  2-samecut
   ICHARG =      2    charge: 1-file 2-atom 10-const
   ISPIN  =      1    spin polarized calculation?
   LNONCOLLINEAR =      F non collinear calculations
   LSORBIT =      F    spin-orbit coupling
   INIWAV =      1    electr: 0-lowe 1-rand  2-diag
   LASPH  =      F    aspherical Exc in radial PAW
   METAGGA=      F    non-selfconsistent MetaGGA calc.

 Electronic Relaxation 1
   ENCUT  =  650.0 eV  47.77 Ry    6.91 a.u.  36.51 36.51 36.51*2*pi/ulx,y,z
   ENINI  =  650.0     initial cutoff
   ENAUG  =  662.6 eV  augmentation charge cutoff
   NELM   =     60;   NELMIN=  2; NELMDL= -5     # of ELM steps 
   EDIFF  = 0.1E-05   stopping-criterion for ELM
   LREAL  =      F    real-space projection
   NLSPLINE    = F    spline interpolate recip. space projectors
   LCOMPAT=      F    compatible to vasp.4.4
   GGA_COMPAT  = T    GGA compatible to vasp.4.4-vasp.4.6
   LMAXPAW     = -100 max onsite density
   LMAXMIX     =    2 max onsite mixed and CHGCAR
   VOSKOWN=      0    Vosko Wilk Nusair interpolation
   ROPT   =    0.00000   0.00000
 Ionic relaxation
   EDIFFG = 0.1E-03   stopping-criterion for IOM
   NSW    =    100    number of steps for IOM
   NBLOCK =      1;   KBLOCK =      1    inner block; outer block 
   IBRION =      2    ionic relax: 0-MD 1-quasi-New 2-CG
   NFREE  =      0    steps in history (QN), initial steepest desc. (CG)
   ISIF   =      2    stress and relaxation
   IWAVPR =     11    prediction:  0-non 1-charg 2-wave 3-comb
   ISYM   =      2    0-nonsym 1-usesym 2-fastsym
   LCORR  =      T    Harris-Foulkes like correction to forces

   POTIM  = 0.5000    time-step for ionic-motion
   TEIN   =    0.0    initial temperature
   TEBEG  = 3500.0;   TEEND  =3500.0 temperature during run
   SMASS  =  -3.00    Nose mass-parameter (am)
   estimated Nose-frequenzy (Omega)   =  0.10E-29 period in steps =****** mass=  -0.705E-26a.u.
   SCALEE = 1.0000    scale energy and forces
   NPACO  =    256;   APACO  = 16.0  distance and # of slots for P.C.
   PSTRESS=   -7.8 pullay stress

  Mass of Ions in am
   POMASS = 114.82 30.97
  Ionic Valenz
   ZVAL   =  13.00  5.00
  Atomic Wigner-Seitz radii
   RWIGS  =  -1.00 -1.00
  virtual crystal weights 
   VCA    =   1.00  1.00
   NELECT =    1936.0000    total number of electrons
   NUPDOWN=      -1.0000    fix difference up-down

 DOS related values:
   EMIN   =  10.00;   EMAX   =-10.00  energy-range for DOS
   EFERMI =   0.00
   ISMEAR =     0;   SIGMA  =   0.10  broadening in eV -4-tet -1-fermi 0-gaus

 Electronic relaxation 2 (details)
   IALGO  =     38    algorithm
   LDIAG  =      T    sub-space diagonalisation (order eigenvalues)
   LSUBROT=      F    optimize rotation matrix (better conditioning)
   TURBO    =      0    0=normal 1=particle mesh
   IRESTART =      0    0=no restart 2=restart with 2 vectors
   NREBOOT  =      0    no. of reboots
   NMIN     =      0    reboot dimension
   EREF     =   0.00    reference energy to select bands
   IMIX   =      4    mixing-type and parameters
     AMIX     =   0.40;   BMIX     =  1.00
     AMIX_MAG =   1.60;   BMIX_MAG =  1.00
     AMIN     =   0.10
     WC   =   100.;   INIMIX=   1;  MIXPRE=   1;  MAXMIX= -45

 Intra band minimization:
   WEIMIN = 0.0010     energy-eigenvalue tresh-hold
   EBREAK =  0.14E-09  absolut break condition
   DEPER  =   0.30     relativ break condition  

   TIME   =   0.40     timestep for ELM

  volume/ion in A,a.u.               =      25.07       169.20
  Fermi-wavevector in a.u.,A,eV,Ry     =   1.161860  2.195598 18.366767  1.349919
  Thomas-Fermi vector in A             =   2.298428
 
 Write flags
   LWAVE        =      T    write WAVECAR
   LDOWNSAMPLE  =      F    k-point downsampling of WAVECAR
   LCHARG       =      T    write CHGCAR
   LVTOT        =      F    write LOCPOT, total local potential
   LVHAR        =      F    write LOCPOT, Hartree potential only
   LELF         =      F    write electronic localiz. function (ELF)
   LORBIT       =      0    0 simple, 1 ext, 2 COOP (PROOUT), +10 PAW based schemes


 Dipole corrections
   LMONO  =      F    monopole corrections only (constant potential shift)
   LDIPOL =      F    correct potential (dipole corrections)
   IDIPOL =      0    1-x, 2-y, 3-z, 4-all directions 
   EPSILON=  1.0000000 bulk dielectric constant

 Exchange correlation treatment:
   GGA     =    --    GGA type
   LEXCH   =     2    internal setting for exchange type
   VOSKOWN=      0    Vosko Wilk Nusair interpolation
   LHFCALC =     F    Hartree Fock is set to
   LHFONE  =     F    Hartree Fock one center treatment
   AEXX    =    0.0000 exact exchange contribution

 Linear response parameters
   LEPSILON=     F    determine dielectric tensor
   LRPA    =     F    only Hartree local field effects (RPA)
   LNABLA  =     F    use nabla operator in PAW spheres
   LVEL    =     F    velocity operator in full k-point grid
   LINTERFAST=   F  fast interpolation
   KINTER  =     0    interpolate to denser k-point grid
   CSHIFT  =0.1000    complex shift for real part using Kramers Kronig
   OMEGAMAX=  -1.0    maximum frequency
   DEG_THRESHOLD= 0.2000000E-02 threshold for treating states as degnerate
   RTIME   =   -0.100 relaxation time in fs
  (WPLASMAI=    0.000 imaginary part of plasma frequency in eV, 0.658/RTIME)
   DFIELD  = 0.0000000 0.0000000 0.0000000 field for delta impulse in time
 
 Orbital magnetization related:
   ORBITALMAG=     F  switch on orbital magnetization
   LCHIMAG   =     F  perturbation theory with respect to B field
   DQ        =  0.001000  dq finite difference perturbation B field
   LLRAUG    =     F  two centre corrections for induced B field



--------------------------------------------------------------------------------------------------------


 conjugate gradient relaxation of ions
 charge density and potential will be updated during run
 non-spin polarized calculation
 Variant of blocked Davidson
 Davidson routine will perform the subspace rotation
 perform sub-space diagonalisation
    after iterative eigenvector-optimisation
 modified Broyden-mixing scheme, WC =      100.0
 initial mixing is a Kerker type mixing with AMIX =  0.4000 and BMIX =      1.0000
 Hartree-type preconditioning will be used
 using additional bands          760
 reciprocal scheme for non local part
 use partial core corrections
 calculate Harris-corrections to forces 
   (improved forces if not selfconsistent)
 use of overlap-Matrix (Vanderbilt PP)
 Gauss-broadening in eV      SIGMA  =   0.10


--------------------------------------------------------------------------------------------------------


  energy-cutoff  :      650.00
  volume of cell :     5415.87
      direct lattice vectors                 reciprocal lattice vectors
    17.561274918  0.000000000  0.000000000     0.056943474  0.000000000  0.000000000
     0.000000000 17.561274918  0.000000000     0.000000000  0.056943474  0.000000000
     0.000000000  0.000000000 17.561274918     0.000000000  0.000000000  0.056943474

  length of vectors
    17.561274918 17.561274918 17.561274918     0.056943474  0.056943474  0.056943474


 
 k-points in units of 2pi/SCALE and weight: K-Points                                
   0.00000000  0.00000000  0.00000000       0.037
   0.01898116  0.00000000  0.00000000       0.074
   0.00000000  0.01898116  0.00000000       0.148
   0.01898116  0.01898116  0.00000000       0.148
  -0.01898116  0.01898116  0.00000000       0.148
   0.00000000  0.01898116  0.01898116       0.074
   0.01898116  0.01898116  0.01898116       0.074
  -0.01898116  0.01898116  0.01898116       0.074
   0.00000000 -0.01898116  0.01898116       0.074
   0.01898116 -0.01898116  0.01898116       0.148
 
 k-points in reciprocal lattice and weights: K-Points                                
   0.00000000  0.00000000  0.00000000       0.037
   0.33333333  0.00000000  0.00000000       0.074
   0.00000000  0.33333333  0.00000000       0.148
   0.33333333  0.33333333  0.00000000       0.148
  -0.33333333  0.33333333  0.00000000       0.148
   0.00000000  0.33333333  0.33333333       0.074
   0.33333333  0.33333333  0.33333333       0.074
  -0.33333333  0.33333333  0.33333333       0.074
   0.00000000 -0.33333333  0.33333333       0.074
   0.33333333 -0.33333333  0.33333333       0.148
 
 position of ions in fractional coordinates (direct lattice) 
   0.45662643  0.45662643  0.45662643
   0.57182301  0.57182301  0.57182301
   0.57519834  0.42135617  0.42135617
   0.42135617  0.57519834  0.42135617
   0.42135617  0.42135617  0.57519834
   0.66204427  0.66204427  0.50735083
   0.66204427  0.50735083  0.66204427
   0.50735083  0.66204427  0.66204427
   0.66487755  0.50390636  0.33645903
   0.66487755  0.33645903  0.50390636
   0.50390636  0.66487755  0.33645903
   0.50390636  0.33645903  0.66487755
   0.33645903  0.66487755  0.50390636
   0.33645903  0.50390636  0.66487755
   0.49986500  0.33219280  0.33219280
   0.33219280  0.49986500  0.33219280
   0.33219280  0.33219280  0.49986500
   0.74915804  0.58532450  0.41928642
   0.74915804  0.41928642  0.58532450
   0.58532450  0.74915804  0.41928642
   0.58532450  0.41928642  0.74915804
   0.41928642  0.74915804  0.58532450
   0.41928642  0.58532450  0.74915804
   0.58302589  0.58302589  0.24893172
   0.58302589  0.24893172  0.58302589
   0.24893172  0.58302589  0.58302589
   0.41623457  0.41623457  0.24940971
   0.41623457  0.24940971  0.41623457
   0.24940971  0.41623457  0.41623457
   0.83283040  0.49992473  0.49992473
   0.49992473  0.83283040  0.49992473
   0.49992473  0.49992473  0.83283040
   0.49923317  0.49923317  0.16604119
   0.49923317  0.16604119  0.49923317
   0.16604119  0.49923317  0.49923317
   0.74935750  0.74935750  0.58357434
   0.74935750  0.58357434  0.74935750
   0.58357434  0.74935750  0.74935750
   0.74706708  0.41745528  0.25293843
   0.74706708  0.25293843  0.41745528
   0.41745528  0.74706708  0.25293843
   0.25293843  0.74706708  0.41745528
   0.41745528  0.25293843  0.74706708
   0.25293843  0.41745528  0.74706708
   0.58370461  0.24930620  0.24930620
   0.24930620  0.58370461  0.24930620
   0.24930620  0.24930620  0.58370461
   0.83306269  0.66720800  0.66720800
   0.66720800  0.83306269  0.66720800
   0.66720800  0.66720800  0.83306269
   0.83265246  0.66659076  0.33422993
   0.66659076  0.83265246  0.33422993
   0.83265246  0.33422993  0.66659076
   0.66659076  0.33422993  0.83265246
   0.33422993  0.83265246  0.66659076
   0.33422993  0.66659076  0.83265246
   0.83266882  0.33391435  0.33391435
   0.66700237  0.66700237  0.16643948
   0.66700237  0.16643948  0.66700237
   0.33391435  0.83266882  0.33391435
   0.33391435  0.33391435  0.83266882
   0.16643948  0.66700237  0.66700237
   0.66655803  0.33372852  0.16682789
   0.66655803  0.16682789  0.33372852
   0.33372852  0.66655803  0.16682789
   0.16682789  0.66655803  0.33372852
   0.33372852  0.16682789  0.66655803
   0.16682789  0.33372852  0.66655803
   0.33304299  0.33304299  0.16605989
   0.33304299  0.16605989  0.33304299
   0.16605989  0.33304299  0.33304299
   0.91616717  0.58348581  0.58348581
   0.58348581  0.91616717  0.58348581
   0.58348581  0.58348581  0.91616717
   0.91664669  0.41682425  0.41682425
   0.74997572  0.74997572  0.25025320
   0.74997572  0.25025320  0.74997572
   0.41682425  0.91664669  0.41682425
   0.41682425  0.41682425  0.91664669
   0.25025320  0.74997572  0.74997572
   0.58343280  0.41669048  0.08307897
   0.41669048  0.58343280  0.08307897
   0.58343280  0.08307897  0.41669048
   0.41669048  0.08307897  0.58343280
   0.08307897  0.58343280  0.41669048
   0.08307897  0.41669048  0.58343280
   0.24987407  0.24987407  0.24987407
   0.83248848  0.83248848  0.50035830
   0.83248848  0.50035830  0.83248848
   0.50035830  0.83248848  0.83248848
   0.83185632  0.49996161  0.16820972
   0.83185632  0.16820972  0.49996161
   0.49996161  0.83185632  0.16820972
   0.49996161  0.16820972  0.83185632
   0.16820972  0.83185632  0.49996161
   0.16820972  0.49996161  0.83185632
   0.49967755  0.16628198  0.16628198
   0.16628198  0.49967755  0.16628198
   0.16628198  0.16628198  0.49967755
   0.91654697  0.75000229  0.41686618
   0.75000229  0.91654697  0.41686618
   0.91654697  0.41686618  0.75000229
   0.75000229  0.41686618  0.91654697
   0.41686618  0.91654697  0.75000229
   0.41686618  0.75000229  0.91654697
   0.91609043  0.58340931  0.25049055
   0.91609043  0.25049055  0.58340931
   0.58340931  0.91609043  0.25049055
   0.58340931  0.25049055  0.91609043
   0.25049055  0.91609043  0.58340931
   0.25049055  0.58340931  0.91609043
   0.74991356  0.58317537  0.08342035
   0.58317537  0.74991356  0.08342035
   0.74991356  0.08342035  0.58317537
   0.58317537  0.08342035  0.74991356
   0.08342035  0.74991356  0.58317537
   0.08342035  0.58317537  0.74991356
   0.41663194  0.24985019  0.08297577
   0.41663194  0.08297577  0.24985019
   0.24985019  0.41663194  0.08297577
   0.24985019  0.08297577  0.41663194
   0.08297577  0.41663194  0.24985019
   0.08297577  0.24985019  0.41663194
   0.99961697  0.66650827  0.50027837
   0.99961697  0.50027837  0.66650827
   0.66650827  0.99961697  0.50027837
   0.50027837  0.99961697  0.66650827
   0.66650827  0.50027837  0.99961697
   0.50027837  0.66650827  0.99961697
   0.99978688  0.50006901  0.33331108
   0.99978688  0.33331108  0.50006901
   0.50006901  0.99978688  0.33331108
   0.33331108  0.99978688  0.50006901
   0.50006901  0.33331108  0.99978688
   0.33331108  0.50006901  0.99978688
   0.91716267  0.75021547  0.75021547
   0.75021547  0.91716267  0.75021547
   0.75021547  0.75021547  0.91716267
   0.91592719  0.25032518  0.25032518
   0.25032518  0.91592719  0.25032518
   0.25032518  0.25032518  0.91592719
   0.74987021  0.25036880  0.08345120
   0.74987021  0.08345120  0.25036880
   0.25036880  0.74987021  0.08345120
   0.08345120  0.74987021  0.25036880
   0.25036880  0.08345120  0.74987021
   0.08345120  0.25036880  0.74987021
   0.83342750  0.83342750  0.83342750
   0.83329309  0.83329309  0.16685499
   0.83329309  0.16685499  0.83329309
   0.16685499  0.83329309  0.83329309
   0.83307863  0.16671385  0.16671385
   0.16671385  0.83307863  0.16671385
   0.16671385  0.16671385  0.83307863
   0.16658338  0.16658338  0.16658338
   0.91635725  0.91635725  0.58313607
   0.91635725  0.58313607  0.91635725
   0.58313607  0.91635725  0.91635725
   0.91584719  0.41705231  0.08395919
   0.91584719  0.08395919  0.41705231
   0.41705231  0.91584719  0.08395919
   0.08395919  0.91584719  0.41705231
   0.41705231  0.08395919  0.91584719
   0.08395919  0.41705231  0.91584719
   0.58331438  0.08317211  0.08317211
   0.08317211  0.58331438  0.08317211
   0.08317211  0.08317211  0.58331438
   0.00012463  0.83352881  0.66656780
   0.00012463  0.66656780  0.83352881
   0.83352881  0.00012463  0.66656780
   0.83352881  0.66656780  0.00012463
   0.66656780  0.00012463  0.83352881
   0.66656780  0.83352881  0.00012463
   0.99994189  0.83322723  0.33357982
   0.83322723  0.99994189  0.33357982
   0.99994189  0.33357982  0.83322723
   0.83322723  0.33357982  0.99994189
   0.99987087  0.66642767  0.16699714
   0.33357982  0.99994189  0.83322723
   0.33357982  0.83322723  0.99994189
   0.66642767  0.99987087  0.16699714
   0.99987087  0.16699714  0.66642767
   0.66642767  0.16699714  0.99987087
   0.99949550  0.33335767  0.16661719
   0.16699714  0.99987087  0.66642767
   0.99949550  0.16661719  0.33335767
   0.16699714  0.66642767  0.99987087
   0.33335767  0.99949550  0.16661719
   0.16661719  0.99949550  0.33335767
   0.33335767  0.16661719  0.99949550
   0.16661719  0.33335767  0.99949550
   0.91670087  0.91670087  0.25020537
   0.91670087  0.25020537  0.91670087
   0.91679816  0.74995715  0.08359561
   0.25020537  0.91670087  0.91670087
   0.74995715  0.91679816  0.08359561
   0.91679816  0.08359561  0.74995715
   0.74995715  0.08359561  0.91679816
   0.08359561  0.91679816  0.74995715
   0.08359561  0.74995715  0.91679816
   0.25013773  0.08325218  0.08325218
   0.08325218  0.25013773  0.08325218
   0.08325218  0.08325218  0.25013773
   0.99975351  0.99975351  0.49997353
   0.99975351  0.49997353  0.99975351
   0.49997353  0.99975351  0.99975351
   0.91680168  0.91680168  0.91680168
   0.91661691  0.08344682  0.08344682
   0.08344682  0.91661691  0.08344682
   0.08344682  0.08344682  0.91661691
   0.00007106  0.00007106  0.83326323
   0.00007106  0.83326323  0.00007106
   0.83326323  0.00007106  0.00007106
   0.99996640  0.99996640  0.16670727
   0.99996640  0.16670727  0.99996640
   0.16670727  0.99996640  0.99996640
 
 position of ions in cartesian coordinates  (Angst):
   8.01894230  8.01894230  8.01894230
  10.04194100 10.04194100 10.04194100
  10.10121611  7.39955151  7.39955151
   7.39955151 10.10121611  7.39955151
   7.39955151  7.39955151 10.10121611
  11.62634140 11.62634140  8.90972739
  11.62634140  8.90972739 11.62634140
   8.90972739 11.62634140 11.62634140
  11.67609740  8.84923810  5.90864951
  11.67609740  5.90864951  8.84923810
   8.84923810 11.67609740  5.90864951
   8.84923810  5.90864951 11.67609740
   5.90864951 11.67609740  8.84923810
   5.90864951  8.84923810 11.67609740
   8.77826663  5.83372907  5.83372907
   5.83372907  8.77826663  5.83372907
   5.83372907  5.83372907  8.77826663
  13.15617023 10.27904439  7.36320404
  13.15617023  7.36320404 10.27904439
  10.27904439 13.15617023  7.36320404
  10.27904439  7.36320404 13.15617023
   7.36320404 13.15617023 10.27904439
   7.36320404 10.27904439 13.15617023
  10.23867797 10.23867797  4.37155842
  10.23867797  4.37155842 10.23867797
   4.37155842 10.23867797 10.23867797
   7.30960972  7.30960972  4.37995247
   7.30960972  4.37995247  7.30960972
   4.37995247  7.30960972  7.30960972
  14.62556354  8.77931555  8.77931555
   8.77931555 14.62556354  8.77931555
   8.77931555  8.77931555 14.62556354
   8.76717092  8.76717092  2.91589491
   8.76717092  2.91589491  8.76717092
   2.91589491  8.76717092  8.76717092
  13.15967315 13.15967315 10.24830939
  13.15967315 10.24830939 13.15967315
  10.24830939 13.15967315 13.15967315
  13.11945032  7.33104697  4.44192123
  13.11945032  4.44192123  7.33104697
   7.33104697 13.11945032  4.44192123
   4.44192123 13.11945032  7.33104697
   7.33104697  4.44192123 13.11945032
   4.44192123  7.33104697 13.11945032
  10.25059716  4.37813473  4.37813473
   4.37813473 10.25059716  4.37813473
   4.37813473  4.37813473 10.25059716
  14.62964286 11.71702315 11.71702315
  11.71702315 14.62964286 11.71702315
  11.71702315 11.71702315 14.62964286
  14.62243876 11.70618362  5.86950361
  11.70618362 14.62243876  5.86950361
  14.62243876  5.86950361 11.70618362
  11.70618362  5.86950361 14.62243876
   5.86950361 14.62243876 11.70618362
   5.86950361 11.70618362 14.62243876
  14.62272599  5.86396170  5.86396170
  11.71341197 11.71341197  2.92288941
  11.71341197  2.92288941 11.71341197
   5.86396170 14.62272599  5.86396170
   5.86396170  5.86396170 14.62272599
   2.92288941 11.71341197 11.71341197
  11.70560878  5.86069827  2.92971042
  11.70560878  2.92971042  5.86069827
   5.86069827 11.70560878  2.92971042
   2.92971042 11.70560878  5.86069827
   5.86069827  2.92971042 11.70560878
   2.92971042  5.86069827 11.70560878
   5.84865942  5.84865942  2.91622331
   5.84865942  2.91622331  5.84865942
   2.91622331  5.84865942  5.84865942
  16.08906351 10.24675475 10.24675475
  10.24675475 16.08906351 10.24675475
  10.24675475 10.24675475 16.08906351
  16.09748455  7.31996526  7.31996526
  13.17052975 13.17052975  4.39476523
  13.17052975  4.39476523 13.17052975
   7.31996526 16.09748455  7.31996526
   7.31996526  7.31996526 16.09748455
   4.39476523 13.17052975 13.17052975
  10.24582378  7.31761602  1.45897262
   7.31761602 10.24582378  1.45897262
  10.24582378  1.45897262  7.31761602
   7.31761602  1.45897262 10.24582378
   1.45897262 10.24582378  7.31761602
   1.45897262  7.31761602 10.24582378
   4.38810729  4.38810729  4.38810729
  14.61955909 14.61955909  8.78692974
  14.61955909  8.78692974 14.61955909
   8.78692974 14.61955909 14.61955909
  14.60845744  8.77996334  2.95397709
  14.60845744  2.95397709  8.77996334
   8.77996334 14.60845744  2.95397709
   8.77996334  2.95397709 14.60845744
   2.95397709 14.60845744  8.77996334
   2.95397709  8.77996334 14.60845744
   8.77497485  2.92012356  2.92012356
   2.92012356  8.77497485  2.92012356
   2.92012356  2.92012356  8.77497485
  16.09573326 13.17099639  7.32070150
  13.17099639 16.09573326  7.32070150
  16.09573326  7.32070150 13.17099639
  13.17099639  7.32070150 16.09573326
   7.32070150 16.09573326 13.17099639
   7.32070150 13.17099639 16.09573326
  16.08771586 10.24541129  4.39893335
  16.08771586  4.39893335 10.24541129
  10.24541129 16.08771586  4.39893335
  10.24541129  4.39893335 16.08771586
   4.39893335 16.08771586 10.24541129
   4.39893335 10.24541129 16.08771586
  13.16943825 10.24130303  1.46496776
  10.24130303 13.16943825  1.46496776
  13.16943825  1.46496776 10.24130303
  10.24130303  1.46496776 13.16943825
   1.46496776 13.16943825 10.24130303
   1.46496776 10.24130303 13.16943825
   7.31658804  4.38768783  1.45716038
   7.31658804  1.45716038  4.38768783
   4.38768783  7.31658804  1.45716038
   4.38768783  1.45716038  7.31658804
   1.45716038  7.31658804  4.38768783
   1.45716038  4.38768783  7.31658804
  17.55454843 11.70473488  8.78552603
  17.55454843  8.78552603 11.70473488
  11.70473488 17.55454843  8.78552603
   8.78552603 17.55454843 11.70473488
  11.70473488  8.78552603 17.55454843
   8.78552603 11.70473488 17.55454843
  17.55753226  8.78184928  5.85336743
  17.55753226  5.85336743  8.78184928
   8.78184928 17.55753226  5.85336743
   5.85336743 17.55753226  8.78184928
   8.78184928  5.85336743 17.55753226
   5.85336743  8.78184928 17.55753226
  16.10654576 13.17474007 13.17474007
  13.17474007 16.10654576 13.17474007
  13.17474007 13.17474007 16.10654576
  16.08484915  4.39602937  4.39602937
   4.39602937 16.08484915  4.39602937
   4.39602937  4.39602937 16.08484915
  13.16867691  4.39679528  1.46550946
  13.16867691  1.46550946  4.39679528
   4.39679528 13.16867691  1.46550946
   1.46550946 13.16867691  4.39679528
   4.39679528  1.46550946 13.16867691
   1.46550946  4.39679528 13.16867691
  14.63604946 14.63604946 14.63604946
  14.63368904 14.63368904  2.93018635
  14.63368904  2.93018635 14.63368904
   2.93018635 14.63368904 14.63368904
  14.62992277  2.92770781  2.92770781
   2.92770781 14.62992277  2.92770781
   2.92770781  2.92770781 14.62992277
   2.92541654  2.92541654  2.92541654
  16.09240154 16.09240154 10.24061284
  16.09240154 10.24061284 16.09240154
  10.24061284 16.09240154 16.09240154
  16.08344421  7.32397033  1.47443035
  16.08344421  1.47443035  7.32397033
   7.32397033 16.08344421  1.47443035
   1.47443035 16.08344421  7.32397033
   7.32397033  1.47443035 16.08344421
   1.47443035  7.32397033 16.08344421
  10.24374415  1.46060837  1.46060837
   1.46060837 10.24374415  1.46060837
   1.46060837  1.46060837 10.24374415
   0.00218864 14.63782865 11.70578032
   0.00218864 11.70578032 14.63782865
  14.63782865  0.00218864 11.70578032
  14.63782865 11.70578032  0.00218864
  11.70578032  0.00218864 14.63782865
  11.70578032 14.63782865  0.00218864
  17.56025447 14.63253251  5.85808685
  14.63253251 17.56025447  5.85808685
  17.56025447  5.85808685 14.63253251
  14.63253251  5.85808685 17.56025447
  17.55900724 11.70331946  2.93268263
   5.85808685 17.56025447 14.63253251
   5.85808685 14.63253251 17.56025447
  11.70331946 17.55900724  2.93268263
  17.55900724  2.93268263 11.70331946
  11.70331946  2.93268263 17.55900724
  17.55241534  5.85418570  2.92601025
   2.93268263 17.55900724 11.70331946
  17.55241534  2.92601025  5.85418570
   2.93268263 11.70331946 17.55900724
   5.85418570 17.55241534  2.92601025
   2.92601025 17.55241534  5.85418570
   5.85418570  2.92601025 17.55241534
   2.92601025  5.85418570 17.55241534
  16.09843599 16.09843599  4.39392533
  16.09843599  4.39392533 16.09843599
  16.10014458 13.17020365  1.46804553
   4.39392533 16.09843599 16.09843599
  13.17020365 16.10014458  1.46804553
  16.10014458  1.46804553 13.17020365
  13.17020365  1.46804553 16.10014458
   1.46804553 16.10014458 13.17020365
   1.46804553 13.17020365 16.10014458
   4.39273741  1.46201449  1.46201449
   1.46201449  4.39273741  1.46201449
   1.46201449  1.46201449  4.39273741
  17.55694633 17.55694633  8.78017269
  17.55694633  8.78017269 17.55694633
   8.78017269 17.55694633 17.55694633
  16.10020635 16.10020635 16.10020635
  16.09696161  1.46543246  1.46543246
   1.46543246 16.09696161  1.46543246
   1.46543246  1.46543246 16.09696161
   0.00124790  0.00124790 14.63316459
   0.00124790 14.63316459  0.00124790
  14.63316459  0.00124790  0.00124790
  17.56068487 17.56068487  2.92759228
  17.56068487  2.92759228 17.56068487
   2.92759228 17.56068487 17.56068487
 


--------------------------------------------------------------------------------------------------------


 k-point  1 :   0.0000 0.0000 0.0000  plane waves:  203965
 k-point  2 :   0.3333 0.0000 0.0000  plane waves:  203781
 k-point  3 :   0.0000 0.3333 0.0000  plane waves:  203781
 k-point  4 :   0.3333 0.3333 0.0000  plane waves:  203862
 k-point  5 :  -0.3333 0.3333 0.0000  plane waves:  203862
 k-point  6 :   0.0000 0.3333 0.3333  plane waves:  203862
 k-point  7 :   0.3333 0.3333 0.3333  plane waves:  203778
 k-point  8 :  -0.3333 0.3333 0.3333  plane waves:  203778
 k-point  9 :   0.0000-0.3333 0.3333  plane waves:  203862
 k-point 10 :   0.3333-0.3333 0.3333  plane waves:  203778

 maximum and minimum number of plane-waves per node :    203965   203778

 maximum number of plane-waves:    203965
 maximum index in each direction: 
   IXMAX=   36   IYMAX=   36   IZMAX=   36
   IXMIN=  -36   IYMIN=  -36   IZMIN=  -36


 serial   3D FFT for wavefunctions
 parallel 3D FFT for charge:
    minimum data exchange during FFTs selected (reduces bandwidth)


 total amount of memory used by VASP MPI-rank0  2215201. kBytes
=======================================================================

   base      :      30000. kBytes
   nonl-proj :    1917204. kBytes
   fftplans  :      15087. kBytes
   grid      :     137526. kBytes
   one-center:      14193. kBytes
   wavefun   :     101191. kBytes
 
     INWAV:  cpu time    0.0000: real time    0.0000
 Broyden mixing: mesh for mixing (old mesh)
   NGX = 73   NGY = 73   NGZ = 73
  (NGX  =196   NGY  =196   NGZ  =196)
  gives a total of 389017 points

 initial charge density was supplied:
 charge density of overlapping atoms calculated
 number of electron    1936.0000000 magnetization 
 keeping initial charge density in first step


--------------------------------------------------------------------------------------------------------


 Maximum index for augmentation-charges          413 (set IRDMAX)


--------------------------------------------------------------------------------------------------------


 First call to EWALD:  gamma=   0.101
 Maximum number of real-space cells 3x 3x 3
 Maximum number of reciprocal cells 3x 3x 3

    FEWALD:  cpu time    0.0078: real time    0.0081


--------------------------------------- Iteration      1(   1)  ---------------------------------------


    POTLOK:  cpu time    0.1703: real time    0.1787
    SETDIJ:  cpu time    0.0336: real time    0.0337
     EDDAV:  cpu time 2692.3810: real time 2693.4812
       DOS:  cpu time    0.0091: real time    0.0101
    --------------------------------------------
      LOOP:  cpu time 2692.5941: real time 2693.7037

 eigenvalue-minimisations  : 51840
 total energy-change (2. order) : 0.1611967E+05  (-0.8180018E+05)
 number of electron    1936.0000000 magnetization 
 augmentation part     1936.0000000 magnetization 

 Free energy of the ion-electron system (eV)
  ---------------------------------------------------
  alpha Z        PSCENC =      5939.96892377
  Ewald energy   TEWEN  =    -72635.74166602
  -Hartree energ DENC   =   -114802.72221027
  -exchange      EXHF   =         0.00000000
  -V(xc)+E(xc)   XCENC  =      4063.04126788
  PAW double counting   =    161468.70292284  -161244.28685129
  entropy T*S    EENTRO =        -0.32809426
  eigenvalues    EBANDS =      5033.76924970
  atomic energy  EATOM  =    188297.26599138
  Solvation  Ediel_sol  =         0.00000000
  ---------------------------------------------------
  free energy    TOTEN  =     16119.66953372 eV

  energy without entropy =    16119.99762798  energy(sigma->0) =    16119.83358085


--------------------------------------------------------------------------------------------------------




--------------------------------------- Iteration      1(   2)  ---------------------------------------


     EDDAV:  cpu time 4196.6589: real time 4198.3707
       DOS:  cpu time    0.0049: real time    0.0284
    --------------------------------------------
      LOOP:  cpu time 4196.6638: real time 4198.3991

 eigenvalue-minimisations  : 69120
 total energy-change (2. order) :-0.1508318E+05  (-0.1438491E+05)
 number of electron    1936.0000000 magnetization 
 augmentation part     1936.0000000 magnetization 

 Free energy of the ion-electron system (eV)
  ---------------------------------------------------
  alpha Z        PSCENC =      5939.96892377
  Ewald energy   TEWEN  =    -72635.74166602
  -Hartree energ DENC   =   -114802.72221027
  -exchange      EXHF   =         0.00000000
  -V(xc)+E(xc)   XCENC  =      4063.04126788
  PAW double counting   =    161468.70292284  -161244.28685129
  entropy T*S    EENTRO =        -0.43782651
  eigenvalues    EBANDS =    -10049.30587330
  atomic energy  EATOM  =    188297.26599138
  Solvation  Ediel_sol  =         0.00000000
  ---------------------------------------------------
  free energy    TOTEN  =      1036.48467847 eV

  energy without entropy =     1036.92250498  energy(sigma->0) =     1036.70359172


--------------------------------------------------------------------------------------------------------




--------------------------------------- Iteration      1(   3)  ---------------------------------------


     EDDAV:  cpu time 4141.5714: real time 4143.2622
       DOS:  cpu time    0.0058: real time    0.0375
    --------------------------------------------
      LOOP:  cpu time 4141.5772: real time 4143.2998

 eigenvalue-minimisations  : 69120
 total energy-change (2. order) :-0.1832762E+04  (-0.1819970E+04)
 number of electron    1936.0000000 magnetization 
 augmentation part     1936.0000000 magnetization 

 Free energy of the ion-electron system (eV)
  ---------------------------------------------------
  alpha Z        PSCENC =      5939.96892377
  Ewald energy   TEWEN  =    -72635.74166602
  -Hartree energ DENC   =   -114802.72221027
  -exchange      EXHF   =         0.00000000
  -V(xc)+E(xc)   XCENC  =      4063.04126788
  PAW double counting   =    161468.70292284  -161244.28685129
  entropy T*S    EENTRO =        -0.58505483
  eigenvalues    EBANDS =    -11881.92026847
  atomic energy  EATOM  =    188297.26599138
  Solvation  Ediel_sol  =         0.00000000
  ---------------------------------------------------
  free energy    TOTEN  =      -796.27694502 eV

  energy without entropy =     -795.69189019  energy(sigma->0) =     -795.98441761


--------------------------------------------------------------------------------------------------------




--------------------------------------- Iteration      1(   4)  ---------------------------------------


     EDDAV:  cpu time 4111.0772: real time 4112.7670
       DOS:  cpu time    0.0076: real time    0.0344
    --------------------------------------------
      LOOP:  cpu time 4111.0847: real time 4112.8014

 eigenvalue-minimisations  : 68544
 total energy-change (2. order) :-0.9543416E+02  (-0.9531245E+02)
 number of electron    1936.0000000 magnetization 
 augmentation part     1936.0000000 magnetization 

 Free energy of the ion-electron system (eV)
  ---------------------------------------------------
  alpha Z        PSCENC =      5939.96892377
  Ewald energy   TEWEN  =    -72635.74166602
  -Hartree energ DENC   =   -114802.72221027
  -exchange      EXHF   =         0.00000000
  -V(xc)+E(xc)   XCENC  =      4063.04126788
  PAW double counting   =    161468.70292284  -161244.28685129
  entropy T*S    EENTRO =        -0.59072939
  eigenvalues    EBANDS =    -11977.34875798
  atomic energy  EATOM  =    188297.26599138
  Solvation  Ediel_sol  =         0.00000000
  ---------------------------------------------------
  free energy    TOTEN  =      -891.71110908 eV

  energy without entropy =     -891.12037970  energy(sigma->0) =     -891.41574439


--------------------------------------------------------------------------------------------------------




--------------------------------------- Iteration      1(   5)  ---------------------------------------


     EDDAV:  cpu time 3311.9230: real time 3313.3167
       DOS:  cpu time    0.0033: real time    0.0115
    CHARGE:  cpu time    3.5869: real time    3.5877
    MIXING:  cpu time    0.0018: real time    0.0023
    --------------------------------------------
      LOOP:  cpu time 3315.5150: real time 3316.9182

 eigenvalue-minimisations  : 57600
 total energy-change (2. order) :-0.3419129E+01  (-0.3417931E+01)
 number of electron    1935.9999913 magnetization 
 augmentation part      640.1805857 magnetization 

 Broyden mixing:
  rms(total) = 0.55751E+01    rms(broyden)= 0.55751E+01
  rms(prec ) = 0.61768E+01
  weight for this iteration     100.00

 Free energy of the ion-electron system (eV)
  ---------------------------------------------------
  alpha Z        PSCENC =      5939.96892377
  Ewald energy   TEWEN  =    -72635.74166602
  -Hartree energ DENC   =   -114802.72221027
  -exchange      EXHF   =         0.00000000
  -V(xc)+E(xc)   XCENC  =      4063.04126788
  PAW double counting   =    161468.70292284  -161244.28685129
  entropy T*S    EENTRO =        -0.59086935
  eigenvalues    EBANDS =    -11980.76774725
  atomic energy  EATOM  =    188297.26599138
  Solvation  Ediel_sol  =         0.00000000
  ---------------------------------------------------
  free energy    TOTEN  =      -895.13023832 eV

  energy without entropy =     -894.53936897  energy(sigma->0) =     -894.83480365


--------------------------------------------------------------------------------------------------------




--------------------------------------- Iteration      1(   6)  ---------------------------------------


    POTLOK:  cpu time    0.1497: real time    0.1791
    SETDIJ:  cpu time    0.0376: real time    0.0376
     EDDAV:  cpu time 4162.6655: real time 4164.3664
       DOS:  cpu time    0.0050: real time    0.0377
    CHARGE:  cpu time    3.5853: real time    3.5861
    MIXING:  cpu time    0.0016: real time    0.0020
    --------------------------------------------
      LOOP:  cpu time 4166.4447: real time 4168.2090

 eigenvalue-minimisations  : 69120
 total energy-change (2. order) :-0.1790603E+02  (-0.6801456E+02)
 number of electron    1935.9999915 magnetization 
 augmentation part      637.2604554 magnetization 

 Broyden mixing:
  rms(total) = 0.29317E+01    rms(broyden)= 0.29317E+01
  rms(prec ) = 0.64036E+01
  weight for this iteration     100.00

 eigenvalues of (default mixing * dielectric matrix)
  average eigenvalue GAMMA=   1.3678
  1.3678

 Free energy of the ion-electron system (eV)
  ---------------------------------------------------
  alpha Z        PSCENC =      5939.96892377
  Ewald energy   TEWEN  =    -72635.74166602
  -Hartree energ DENC   =   -115176.69940987
  -exchange      EXHF   =         0.00000000
  -V(xc)+E(xc)   XCENC  =      4049.38270751
  PAW double counting   =    172119.02736905  -171944.89958952
  entropy T*S    EENTRO =        -0.59815027
  eigenvalues    EBANDS =    -11560.74244795
  atomic energy  EATOM  =    188297.26599138
  Solvation  Ediel_sol  =         0.00000000
  ---------------------------------------------------
  free energy    TOTEN  =      -913.03627192 eV

  energy without entropy =     -912.43812165  energy(sigma->0) =     -912.73719679


--------------------------------------------------------------------------------------------------------




--------------------------------------- Iteration      1(   7)  ---------------------------------------


    POTLOK:  cpu time    0.1311: real time    0.3814
    SETDIJ:  cpu time    0.0377: real time    0.0377
     EDDAV:  cpu time 4154.7850: real time 4156.4313
       DOS:  cpu time    0.0038: real time    0.0336
    CHARGE:  cpu time    3.5812: real time    3.5824
    MIXING:  cpu time    0.0014: real time    0.0014
    --------------------------------------------
      LOOP:  cpu time 4158.5402: real time 4160.4678

 eigenvalue-minimisations  : 69120
 total energy-change (2. order) : 0.2018112E+02  (-0.9064580E+02)
 number of electron    1935.9999912 magnetization 
 augmentation part      645.0252583 magnetization 

 Broyden mixing:
  rms(total) = 0.33968E+01    rms(broyden)= 0.33968E+01
  rms(prec ) = 0.50929E+01
  weight for this iteration     100.00

 eigenvalues of (default mixing * dielectric matrix)
  average eigenvalue GAMMA=   1.2715
  2.2825  0.2606

 Free energy of the ion-electron system (eV)
  ---------------------------------------------------
  alpha Z        PSCENC =      5939.96892377
  Ewald energy   TEWEN  =    -72635.74166602
  -Hartree energ DENC   =   -114317.00924966
  -exchange      EXHF   =         0.00000000
  -V(xc)+E(xc)   XCENC  =      4048.72761445
  PAW double counting   =    173436.53055896  -173258.88481888
  entropy T*S    EENTRO =        -0.56118642
  eigenvalues    EBANDS =    -12403.15131612
  atomic energy  EATOM  =    188297.26599138
  Solvation  Ediel_sol  =         0.00000000
  ---------------------------------------------------
  free energy    TOTEN  =      -892.85514854 eV

  energy without entropy =     -892.29396212  energy(sigma->0) =     -892.57455533


--------------------------------------------------------------------------------------------------------




--------------------------------------- Iteration      1(   8)  ---------------------------------------


    POTLOK:  cpu time    0.1254: real time    0.3020
    SETDIJ:  cpu time    0.0362: real time    0.0362
     EDDAV:  cpu time 3825.8263: real time 3827.4185
       DOS:  cpu time    0.0061: real time    0.0069
    CHARGE:  cpu time    3.5933: real time    3.5940
    MIXING:  cpu time    0.0014: real time    0.0014
    --------------------------------------------
      LOOP:  cpu time 3829.5887: real time 3831.3590

 eigenvalue-minimisations  : 65088
 total energy-change (2. order) : 0.1710400E+02  (-0.1389822E+02)
 number of electron    1935.9999912 magnetization 
 augmentation part      643.3216896 magnetization 

 Broyden mixing:
  rms(total) = 0.47462E+00    rms(broyden)= 0.47462E+00
  rms(prec ) = 0.58578E+00
  weight for this iteration     100.00

 eigenvalues of (default mixing * dielectric matrix)
  average eigenvalue GAMMA=   1.2560
  2.4879  0.9876  0.2924

 Free energy of the ion-electron system (eV)
  ---------------------------------------------------
  alpha Z        PSCENC =      5939.96892377
  Ewald energy   TEWEN  =    -72635.74166602
  -Hartree energ DENC   =   -114492.88524470
  -exchange      EXHF   =         0.00000000
  -V(xc)+E(xc)   XCENC  =      4045.88622168
  PAW double counting   =    184609.30709732  -184519.97262851
  entropy T*S    EENTRO =        -0.55949683
  eigenvalues    EBANDS =    -12119.02034739
  atomic energy  EATOM  =    188297.26599138
  Solvation  Ediel_sol  =         0.00000000
  ---------------------------------------------------
  free energy    TOTEN  =      -875.75114929 eV

  energy without entropy =     -875.19165247  energy(sigma->0) =     -875.47140088


--------------------------------------------------------------------------------------------------------




--------------------------------------- Iteration      1(   9)  ---------------------------------------


    POTLOK:  cpu time    0.1512: real time    0.1801
    SETDIJ:  cpu time    0.0365: real time    0.0365
     EDDAV:  cpu time 3246.4132: real time 3247.7742
       DOS:  cpu time    0.0063: real time    0.0071
    CHARGE:  cpu time    3.5734: real time    3.5776
    MIXING:  cpu time    0.0015: real time    0.0015
    --------------------------------------------
      LOOP:  cpu time 3250.1820: real time 3251.5770

 eigenvalue-minimisations  : 58176
 total energy-change (2. order) :-0.2901464E-01  (-0.9011070E+00)
 number of electron    1935.9999912 magnetization 
 augmentation part      642.5980950 magnetization 

 Broyden mixing:
  rms(total) = 0.28270E+00    rms(broyden)= 0.28270E+00
  rms(prec ) = 0.39935E+00
  weight for this iteration     100.00

 eigenvalues of (default mixing * dielectric matrix)
  average eigenvalue GAMMA=   1.1156
  2.5184  1.0888  0.2898  0.5654

 Free energy of the ion-electron system (eV)
  ---------------------------------------------------
  alpha Z        PSCENC =      5939.96892377
  Ewald energy   TEWEN  =    -72635.74166602
  -Hartree energ DENC   =   -114530.55623752
  -exchange      EXHF   =         0.00000000
  -V(xc)+E(xc)   XCENC  =      4046.75676947
  PAW double counting   =    185881.17115742  -185808.84378858
  entropy T*S    EENTRO =        -0.57875713
  eigenvalues    EBANDS =    -12065.22255672
  atomic energy  EATOM  =    188297.26599138
  Solvation  Ediel_sol  =         0.00000000
  ---------------------------------------------------
  free energy    TOTEN  =      -875.78016393 eV

  energy without entropy =     -875.20140680  energy(sigma->0) =     -875.49078537


--------------------------------------------------------------------------------------------------------




--------------------------------------- Iteration      1(  10)  ---------------------------------------


    POTLOK:  cpu time    0.1371: real time    0.1888
    SETDIJ:  cpu time    0.0358: real time    0.0358
     EDDAV:  cpu time 3121.6140: real time 3122.9614
       DOS:  cpu time    0.0095: real time    0.0165
    CHARGE:  cpu time    3.5729: real time    3.5738
    MIXING:  cpu time    0.0013: real time    0.0018
    --------------------------------------------
      LOOP:  cpu time 3125.3706: real time 3126.7781

 eigenvalue-minimisations  : 56448
 total energy-change (2. order) : 0.6799424E-01  (-0.2841202E+00)
 number of electron    1935.9999913 magnetization 
 augmentation part      642.2888390 magnetization 

 Broyden mixing:
  rms(total) = 0.22157E+00    rms(broyden)= 0.22157E+00
  rms(prec ) = 0.28827E+00
  weight for this iteration     100.00

 eigenvalues of (default mixing * dielectric matrix)
  average eigenvalue GAMMA=   1.0534
  2.5427  1.0898  0.2902  0.6722  0.6722

 Free energy of the ion-electron system (eV)
  ---------------------------------------------------
  alpha Z        PSCENC =      5939.96892377
  Ewald energy   TEWEN  =    -72635.74166602
  -Hartree energ DENC   =   -114536.88224365
  -exchange      EXHF   =         0.00000000
  -V(xc)+E(xc)   XCENC  =      4047.16193054
  PAW double counting   =    185842.98669867  -185772.99946290
  entropy T*S    EENTRO =        -0.57484975
  eigenvalues    EBANDS =    -12056.89749172
  atomic energy  EATOM  =    188297.26599138
  Solvation  Ediel_sol  =         0.00000000
  ---------------------------------------------------
  free energy    TOTEN  =      -875.71216969 eV

  energy without entropy =     -875.13731994  energy(sigma->0) =     -875.42474482


--------------------------------------------------------------------------------------------------------




--------------------------------------- Iteration      1(  11)  ---------------------------------------


    POTLOK:  cpu time    0.1276: real time    0.1425
    SETDIJ:  cpu time    0.0368: real time    0.0368
     EDDAV:  cpu time 3515.7164: real time 3517.1960
       DOS:  cpu time    0.0119: real time    0.0126
    CHARGE:  cpu time    3.5915: real time    3.5924
    MIXING:  cpu time    0.0022: real time    0.0022
    --------------------------------------------
      LOOP:  cpu time 3519.4863: real time 3520.9824

 eigenvalue-minimisations  : 61632
 total energy-change (2. order) : 0.2457237E-01  (-0.9950973E-01)
 number of electron    1935.9999913 magnetization 
 augmentation part      642.1195513 magnetization 

 Broyden mixing:
  rms(total) = 0.17491E+00    rms(broyden)= 0.17491E+00
  rms(prec ) = 0.20064E+00
  weight for this iteration     100.00

 eigenvalues of (default mixing * dielectric matrix)
  average eigenvalue GAMMA=   1.0750
  2.5567  1.1329  1.1329  0.9665  0.2903  0.3704

 Free energy of the ion-electron system (eV)
  ---------------------------------------------------
  alpha Z        PSCENC =      5939.96892377
  Ewald energy   TEWEN  =    -72635.74166602
  -Hartree energ DENC   =   -114541.08708180
  -exchange      EXHF   =         0.00000000
  -V(xc)+E(xc)   XCENC  =      4047.24352313
  PAW double counting   =    185792.02301203  -185722.71194669
  entropy T*S    EENTRO =        -0.57059726
  eigenvalues    EBANDS =    -12052.07775587
  atomic energy  EATOM  =    188297.26599138
  Solvation  Ediel_sol  =         0.00000000
  ---------------------------------------------------
  free energy    TOTEN  =      -875.68759732 eV

  energy without entropy =     -875.11700006  energy(sigma->0) =     -875.40229869


--------------------------------------------------------------------------------------------------------




--------------------------------------- Iteration      1(  12)  ---------------------------------------


    POTLOK:  cpu time    0.1209: real time    0.1573
    SETDIJ:  cpu time    0.0373: real time    0.0373
     EDDAV:  cpu time 3662.9511: real time 3664.5418
       DOS:  cpu time    0.0040: real time    0.0047
    CHARGE:  cpu time    3.5962: real time    3.5975
    MIXING:  cpu time    0.0015: real time    0.0015
    --------------------------------------------
      LOOP:  cpu time 3666.7110: real time 3668.3400

 eigenvalue-minimisations  : 63360
 total energy-change (2. order) : 0.5975096E-02  (-0.3260981E-01)
 number of electron    1935.9999913 magnetization 
 augmentation part      641.9999357 magnetization 

 Broyden mixing:
  rms(total) = 0.11268E+00    rms(broyden)= 0.11268E+00
  rms(prec ) = 0.13256E+00
  weight for this iteration     100.00

 eigenvalues of (default mixing * dielectric matrix)
  average eigenvalue GAMMA=   1.1452
  2.5036  1.6775  1.6775  0.9587  0.6011  0.2903  0.3078

 Free energy of the ion-electron system (eV)
  ---------------------------------------------------
  alpha Z        PSCENC =      5939.96892377
  Ewald energy   TEWEN  =    -72635.74166602
  -Hartree energ DENC   =   -114544.34367988
  -exchange      EXHF   =         0.00000000
  -V(xc)+E(xc)   XCENC  =      4047.16379972
  PAW double counting   =    185720.53601618  -185651.40172966
  entropy T*S    EENTRO =        -0.57327795
  eigenvalues    EBANDS =    -12048.55599976
  atomic energy  EATOM  =    188297.26599138
  Solvation  Ediel_sol  =         0.00000000
  ---------------------------------------------------
  free energy    TOTEN  =      -875.68162222 eV

  energy without entropy =     -875.10834427  energy(sigma->0) =     -875.39498325


--------------------------------------------------------------------------------------------------------




--------------------------------------- Iteration      1(  13)  ---------------------------------------


    POTLOK:  cpu time    0.1386: real time    0.1429
    SETDIJ:  cpu time    0.0386: real time    0.0386
     EDDAV:  cpu time 3526.8569: real time 3528.3559
       DOS:  cpu time    0.0050: real time    0.0058
    CHARGE:  cpu time    3.5897: real time    3.5905
    MIXING:  cpu time    0.0017: real time    0.0017
    --------------------------------------------
      LOOP:  cpu time 3530.6304: real time 3532.1354

 eigenvalue-minimisations  : 61632
 total energy-change (2. order) :-0.1002095E-01  (-0.3330095E-01)
 number of electron    1935.9999913 magnetization 
 augmentation part      641.9948771 magnetization 

 Broyden mixing:
  rms(total) = 0.55613E-01    rms(broyden)= 0.55613E-01
  rms(prec ) = 0.13004E+00
  weight for this iteration     100.00

 eigenvalues of (default mixing * dielectric matrix)
  average eigenvalue GAMMA=   1.0938
  2.4053  2.1572  1.5191  0.9599  0.6538  0.4623  0.2902  0.3025

 Free energy of the ion-electron system (eV)
  ---------------------------------------------------
  alpha Z        PSCENC =      5939.96892377
  Ewald energy   TEWEN  =    -72635.74166602
  -Hartree energ DENC   =   -114542.91207771
  -exchange      EXHF   =         0.00000000
  -V(xc)+E(xc)   XCENC  =      4046.93391525
  PAW double counting   =    185613.53137950  -185543.56170176
  entropy T*S    EENTRO =        -0.57308480
  eigenvalues    EBANDS =    -12050.60332278
  atomic energy  EATOM  =    188297.26599138
  Solvation  Ediel_sol  =         0.00000000
  ---------------------------------------------------
  free energy    TOTEN  =      -875.69164317 eV

  energy without entropy =     -875.11855837  energy(sigma->0) =     -875.40510077


--------------------------------------------------------------------------------------------------------




--------------------------------------- Iteration      1(  14)  ---------------------------------------


    POTLOK:  cpu time    0.1366: real time    0.1472
    SETDIJ:  cpu time    0.0380: real time    0.0380
     EDDAV:  cpu time 3404.1750: real time 3405.6208
       DOS:  cpu time    0.0057: real time    0.0066
    CHARGE:  cpu time    3.6143: real time    3.6159
    MIXING:  cpu time    0.0026: real time    0.0026
    --------------------------------------------
      LOOP:  cpu time 3407.9723: real time 3409.4312

 eigenvalue-minimisations  : 59904
 total energy-change (2. order) : 0.1547915E-01  (-0.2324123E-01)
 number of electron    1935.9999913 magnetization 
 augmentation part      641.9906174 magnetization 

 Broyden mixing:
  rms(total) = 0.17153E-01    rms(broyden)= 0.17153E-01
  rms(prec ) = 0.31334E-01
  weight for this iteration     100.00

 eigenvalues of (default mixing * dielectric matrix)
  average eigenvalue GAMMA=   1.0637
  2.4410  2.4410  1.3082  1.0146  0.8682  0.5808  0.3320  0.2902  0.2970

 Free energy of the ion-electron system (eV)
  ---------------------------------------------------
  alpha Z        PSCENC =      5939.96892377
  Ewald energy   TEWEN  =    -72635.74166602
  -Hartree energ DENC   =   -114542.38470598
  -exchange      EXHF   =         0.00000000
  -V(xc)+E(xc)   XCENC  =      4046.86101294
  PAW double counting   =    185569.77585901  -185499.50356452
  entropy T*S    EENTRO =        -0.57177591
  eigenvalues    EBANDS =    -12051.34623870
  atomic energy  EATOM  =    188297.26599138
  Solvation  Ediel_sol  =         0.00000000
  ---------------------------------------------------
  free energy    TOTEN  =      -875.67616402 eV

  energy without entropy =     -875.10438812  energy(sigma->0) =     -875.39027607


--------------------------------------------------------------------------------------------------------




--------------------------------------- Iteration      1(  15)  ---------------------------------------


    POTLOK:  cpu time    0.1376: real time    0.1531
    SETDIJ:  cpu time    0.0362: real time    0.0362
     EDDAV:  cpu time 3284.7056: real time 3286.0963
       DOS:  cpu time    0.0041: real time    0.0049
    CHARGE:  cpu time    3.5831: real time    3.5840
    MIXING:  cpu time    0.0022: real time    0.0026
    --------------------------------------------
      LOOP:  cpu time 3288.4689: real time 3289.8770

 eigenvalue-minimisations  : 58752
 total energy-change (2. order) : 0.3398944E-03  (-0.1685557E-02)
 number of electron    1935.9999913 magnetization 
 augmentation part      641.9703665 magnetization 

 Broyden mixing:
  rms(total) = 0.86685E-02    rms(broyden)= 0.86684E-02
  rms(prec ) = 0.96060E-02
  weight for this iteration     100.00

[...]
     10.23167     13.15714      1.38497        -0.271598     -0.052786     -1.347381
     13.15573      1.38270     10.22661        -0.200521     -1.492375     -0.264057
     10.23167      1.38497     13.15714        -0.271598     -1.347381     -0.052786
      1.38492     13.15752     10.23240        -1.337854     -0.037425     -0.268372
      1.38492     10.23240     13.15752        -1.337854     -0.268372     -0.037425
      7.32657      4.39455      1.37616         0.298050     -0.140050     -1.492620
      7.32657      1.37616      4.39455         0.298050     -1.492620     -0.140050
      4.39398      7.32622      1.37491        -0.154852      0.293473     -1.502879
      4.39398      1.37491      7.32622        -0.154852     -1.502879      0.293473
      1.37712      7.32583      4.40012        -1.370408      0.226359      0.034386
      1.37712      4.40012      7.32583        -1.370408      0.034386      0.226359
      0.03900     11.74997      8.82319         0.893695      0.909565      0.865860
      0.03900      8.82319     11.74997         0.893695      0.865860      0.909565
     11.74830      0.03450      8.82588         0.896042      0.810702      0.901168
      8.82347      0.03774     11.75029         0.886265      0.870047      0.937162
     11.74830      8.82588      0.03450         0.896042      0.901168      0.810702
      8.82347     11.75029      0.03774         0.886265      0.937162      0.870047
      0.03718      8.74211      5.80383         0.829921     -0.861956     -1.002513
      0.03718      5.80383      8.74211         0.829921     -1.002513     -0.861956
      8.78294     17.55693      5.76298         0.022670     -0.023952     -1.582090
      5.76391     17.55743      8.78283        -1.569886     -0.013627      0.019621
      8.78294      5.76298     17.55693         0.022670     -1.582090     -0.023952
      5.76391      8.78283     17.55743        -1.569886      0.019621     -0.013627
     16.14408     13.20872     13.20872         0.844202      0.684879      0.684879
     13.20889     16.14447     13.20768         0.692443      0.851235      0.665147
     13.20889     13.20768     16.14447         0.692443      0.665147      0.851235
     16.11879      4.36732      4.36732         0.845684     -0.572050     -0.572050
      4.36564     16.11631      4.36904        -0.628941      0.804032     -0.535543
      4.36564      4.36904     16.11631        -0.628941     -0.535543      0.804032
     13.20716      4.37108      1.42733         0.785386     -0.580310     -0.787206
     13.20716      1.42733      4.37108         0.785386     -0.787206     -0.580310
      4.37116     13.20332      1.42881        -0.588074      0.702480     -0.777666
      1.42405     13.19807      4.36656        -0.783170      0.644228     -0.669615
      4.37116      1.42881     13.20332        -0.588074     -0.777666      0.702480
      1.42405      4.36656     13.19807        -0.783170     -0.669615      0.644228
     14.63010     14.62875     14.62875        -0.054025     -0.062684     -0.062684
     14.66118     14.66422      2.89371         0.586483      0.683013     -0.835727
     14.66118      2.89371     14.66422         0.586483     -0.835727      0.683013
      2.89006     14.66481     14.66481        -0.957788      0.657670      0.657670
     14.62670      2.93276      2.93276        -0.014432      0.002086      0.002086
      2.93145     14.62942      2.92976        -0.055177      0.032474     -0.064457
      2.93145      2.92976     14.62942        -0.055177     -0.064457      0.032474
      2.88511      2.88621      2.88621        -0.870496     -0.855285     -0.855285
     16.13071     16.12822     10.27141         0.830199      0.770858      0.602991
     16.13071     10.27141     16.12822         0.830199      0.602991      0.770858
     10.27087     16.12943     16.12943         0.616998      0.809943      0.809943
     16.11475      7.28530      1.42738         0.559134     -0.651004     -0.806937
     16.11475      1.42738      7.28530         0.559134     -0.806937     -0.651004
      7.28643     16.11821      1.42478        -0.523352      0.546819     -0.749541
      1.42413     16.11838      7.28872        -0.785573      0.554370     -0.462861
      7.28643      1.42478     16.11821        -0.523352     -0.749541      0.546819
      1.42413      7.28872     16.11838        -0.785573     -0.462861      0.554370
     10.26894      1.41510      1.41510         0.233324     -0.759553     -0.759553
      1.40989     10.27484      1.42316        -0.793783      0.367119     -0.620109
      1.40989      1.42316     10.27484        -0.793783     -0.620109      0.367119
     -0.00801     14.62578     11.69603        -0.241118     -0.190835     -0.115627
     -0.00801     11.69603     14.62578        -0.241118     -0.115627     -0.190835
     14.62239     -0.00720     11.69281        -0.243753     -0.230740     -0.188965
     14.62239     11.69281     -0.00720        -0.243753     -0.188965     -0.230740
     11.69691     -0.00742     14.62693        -0.094213     -0.225309     -0.164338
     11.69691     14.62693     -0.00742        -0.094213     -0.164338     -0.225309
      0.05668     14.66265      5.83056         1.013498      0.542556     -0.431797
     14.66518      0.05183      5.82987         0.590142      0.909444     -0.449220
      0.05668      5.83056     14.66265         1.013498     -0.431797      0.542556
     14.66518      5.82987      0.05183         0.590142     -0.449220      0.909444
      0.05194     11.73416      2.90216         0.934911      0.516831     -0.543071
      5.83116      0.05598     14.66356        -0.422408      1.005328      0.564283
      5.83116     14.66356      0.05598        -0.422408      0.564283      1.005328
     11.69500      0.00861      2.94820        -0.097140      0.206824      0.262668
      0.05194      2.90216     11.73416         0.934911     -0.543071      0.516831
     11.69500      2.94820      0.00861        -0.097140      0.262668      0.206824
     17.53836      5.86531      2.94107        -0.332034      0.127257      0.276062
      2.94927      0.00726     11.69660         0.287903      0.196873     -0.058678
     17.53836      2.94107      5.86531        -0.332034      0.276062      0.127257
      2.94927     11.69660      0.00726         0.287903     -0.058678      0.196873
      5.86366     17.53898      2.93863         0.105061     -0.293022      0.215499
      2.93985     17.53967      5.86352         0.233291     -0.287508      0.087696
      5.86366      2.93863     17.53898         0.105061      0.215499     -0.293022
      2.93985      5.86352     17.53967         0.233291      0.087696     -0.287508
     16.08998     16.09365      4.40354        -0.035650      0.052565      0.085545
     16.08998      4.40354     16.09365        -0.035650      0.085545      0.052565
     16.10057     13.17087      1.48169         0.074314      0.077658      0.164758
      4.40508     16.09127     16.09127         0.133594      0.008965      0.008965
     13.17832     16.09421      1.47064         0.206072     -0.063731      0.005509
     16.10057      1.48169     13.17087         0.074314      0.164758      0.077658
     13.17832      1.47064     16.09421         0.206072      0.005509     -0.063731
      1.47203     16.09333     13.17998         0.034436     -0.095212      0.249047
      1.47203     13.17998     16.09333         0.034436      0.249047     -0.095212
      4.38129      1.46716      1.46716        -0.286546      0.043654      0.043654
      1.46913      4.38113      1.46773         0.102955     -0.295882      0.059340
      1.46913      1.46773      4.38113         0.102955      0.059340     -0.295882
     17.55399     17.55450      8.77909        -0.078472     -0.065498     -0.012734
     17.55399      8.77909     17.55450        -0.078472     -0.012734     -0.065498
      8.78201     17.55532     17.55532         0.047204     -0.045280     -0.045280
     16.10193     16.10606     16.10606         0.039739      0.132711      0.132711
     16.09490      1.46033      1.46033        -0.063453     -0.091372     -0.091372
      1.46062     16.09263      1.46232        -0.073526     -0.119123     -0.045190
      1.46062      1.46232     16.09263        -0.073526     -0.045190     -0.119123
      0.00622      0.00267     14.63666         0.102224      0.066825      0.062236
      0.00622     14.63666      0.00267         0.102224      0.062236      0.066825
     14.63620      0.00206      0.00206         0.069560      0.009671      0.009671
      0.00529      0.00607      2.92716         0.078569      0.107294      0.056289
      0.00529      2.92716      0.00607         0.078569      0.056289      0.107294
      2.92990      0.00411      0.00411         0.131028      0.051285      0.051285
 -----------------------------------------------------------------------------------
    total drift:                               -0.007465     -0.007166     -0.007114


--------------------------------------------------------------------------------------------------------



  FREE ENERGIE OF THE ION-ELECTRON SYSTEM (eV)
  ---------------------------------------------------
  free  energy   TOTEN  =      -891.93438586 eV

  energy  without entropy=     -891.37371025  energy(sigma->0) =     -891.65404806

  SIGMA =         0.10000000
  enthalpy is  TOTEN    =      -918.46988123 eV   P V=      -26.53549537

 d Force = 0.1659898E+02[ 0.106E+02, 0.226E+02]  d Energy = 0.1625836E+02 0.341E+00
 d Force = 0.4910813E+04[ 0.461E+04, 0.521E+04]  d Ewald  = 0.4907167E+04 0.365E+01


--------------------------------------------------------------------------------------------------------


    POTLOK:  cpu time    0.1653: real time    0.1659


--------------------------------------------------------------------------------------------------------


 Steepest descent step on ions:
 trial-energy change:  -16.258363  1 .order  -16.598975  -22.617478  -10.580472
  (g-gl).g = 0.226E+02      g.g   = 0.226E+02  gl.gl    = 0.000E+00
 g(Force)  = 0.226E+02   g(Stress)= 0.000E+00 ortho     = 0.000E+00
 gamma     =   0.00000
 trial     =   1.00000
 opt step  =   2.55020  (harmonic =   1.87900) maximal distance =0.71283731
 next E    =  -925.401922   (d E  = -23.19040)


--------------------------------------------------------------------------------------------------------


    WAVPRE:  cpu time    0.0275: real time    0.1693
    FEWALD:  cpu time    0.0088: real time    0.0092
    ORTHCH:  cpu time  237.3711: real time  237.4443
     LOOP+:  cpu time74251.2865: real time74282.8806


--------------------------------------- Iteration      3(   1)  ---------------------------------------


    POTLOK:  cpu time    0.1234: real time    0.1339
    SETDIJ:  cpu time    0.0361: real time    0.0361
     EDDAV:  cpu time 1704.9229: real time 1705.6485
       DOS:  cpu time    0.0136: real time    0.0142
    CHARGE:  cpu time    3.5682: real time    3.5691
    MIXING:  cpu time    0.0011: real time    0.0011
    --------------------------------------------
      LOOP:  cpu time 1708.6654: real time 1709.4030

 eigenvalue-minimisations  : 34560
 total energy-change (2. order) : 0.6306336E+03  (-0.3087023E+04)
 number of electron    1936.0000123 magnetization 
 augmentation part      651.7519644 magnetization 

 Broyden mixing:
  rms(total) = 0.25305E+02    rms(broyden)= 0.25305E+02
  rms(prec ) = 0.25336E+02
  weight for this iteration     100.00

 Free energy of the ion-electron system (eV)
  ---------------------------------------------------
  alpha Z        PSCENC =      5939.96892377
  Ewald energy   TEWEN  =    -84045.57151008
  -Hartree energ DENC   =   -103256.34696944
  -exchange      EXHF   =         0.00000000
  -V(xc)+E(xc)   XCENC  =      4045.36891123
  PAW double counting   =    184007.87696742  -183925.68191031
  entropy T*S    EENTRO =        -0.54983961
  eigenvalues    EBANDS =    -11323.63137685
  atomic energy  EATOM  =    188297.26599138
  Solvation  Ediel_sol  =         0.00000000
  ---------------------------------------------------
  free energy    TOTEN  =      -261.30081248 eV

  energy without entropy =     -260.75097287  energy(sigma->0) =     -261.02589268


--------------------------------------------------------------------------------------------------------




--------------------------------------- Iteration      3(   2)  ---------------------------------------


    POTLOK:  cpu time    0.1369: real time    0.2311
    SETDIJ:  cpu time    0.0367: real time    0.0367
     EDDAV:  cpu time 4137.2256: real time 4138.9345
       DOS:  cpu time    0.0057: real time    0.0475
    CHARGE:  cpu time    3.6014: real time    3.6022
    MIXING:  cpu time    0.0016: real time    0.0016
    --------------------------------------------
      LOOP:  cpu time 4141.0078: real time 4142.8535

 eigenvalue-minimisations  : 69120
 total energy-change (2. order) :-0.6187660E+03  (-0.6314328E+03)
 number of electron    1936.0000026 magnetization 
 augmentation part      644.2589398 magnetization 

 Broyden mixing:
  rms(total) = 0.73967E+01    rms(broyden)= 0.73967E+01
  rms(prec ) = 0.75012E+01
  weight for this iteration     100.00

 eigenvalues of (default mixing * dielectric matrix)
  average eigenvalue GAMMA=   0.7794
  0.7794

 Free energy of the ion-electron system (eV)
  ---------------------------------------------------
  alpha Z        PSCENC =      5939.96892377
  Ewald energy   TEWEN  =    -84045.57151008
  -Hartree energ DENC   =   -102974.91786437
  -exchange      EXHF   =         0.00000000
  -V(xc)+E(xc)   XCENC  =      4039.72675234
  PAW double counting   =    191405.88311353  -191386.76888089
  entropy T*S    EENTRO =        -0.53044681
  eigenvalues    EBANDS =    -12155.12290918
  atomic energy  EATOM  =    188297.26599138
  Solvation  Ediel_sol  =         0.00000000
  ---------------------------------------------------
  free energy    TOTEN  =      -880.06683031 eV

  energy without entropy =     -879.53638350  energy(sigma->0) =     -879.80160691


--------------------------------------------------------------------------------------------------------




--------------------------------------- Iteration      3(   3)  ---------------------------------------


    POTLOK:  cpu time    0.1357: real time    0.1463
    SETDIJ:  cpu time    0.0354: real time    0.0355
     EDDAV:  cpu time 3669.0023: real time 3670.5321
       DOS:  cpu time    0.0047: real time    0.0191
    CHARGE:  cpu time    3.5810: real time    3.5832
    MIXING:  cpu time    0.0011: real time    0.0011
    --------------------------------------------
      LOOP:  cpu time 3672.7603: real time 3674.3171

 eigenvalue-minimisations  : 63360
 total energy-change (2. order) :-0.1903070E+02  (-0.3046888E+02)
 number of electron    1936.0000025 magnetization 
 augmentation part      642.9115491 magnetization 

 Broyden mixing:
  rms(total) = 0.76198E+01    rms(broyden)= 0.76198E+01
  rms(prec ) = 0.77827E+01
  weight for this iteration     100.00

 eigenvalues of (default mixing * dielectric matrix)
  average eigenvalue GAMMA=   0.7514
  0.7514  0.7514

 Free energy of the ion-electron system (eV)
  ---------------------------------------------------
  alpha Z        PSCENC =      5939.96892377
  Ewald energy   TEWEN  =    -84045.57151008
  -Hartree energ DENC   =   -103171.57947434
  -exchange      EXHF   =         0.00000000
  -V(xc)+E(xc)   XCENC  =      4038.92220555
  PAW double counting   =    190206.04556260  -190162.59511759
  entropy T*S    EENTRO =        -0.55517479
  eigenvalues    EBANDS =    -12000.99893238
  atomic energy  EATOM  =    188297.26599138
  Solvation  Ediel_sol  =         0.00000000
  ---------------------------------------------------
  free energy    TOTEN  =      -899.09752587 eV

  energy without entropy =     -898.54235109  energy(sigma->0) =     -898.81993848


--------------------------------------------------------------------------------------------------------




--------------------------------------- Iteration      3(   4)  ---------------------------------------


    POTLOK:  cpu time    0.1322: real time    0.1506
    SETDIJ:  cpu time    0.0372: real time    0.0372
     EDDAV:  cpu time 3671.4199: real time 3672.9492
       DOS:  cpu time    0.0034: real time    0.0140
    CHARGE:  cpu time    3.5954: real time    3.5964
    MIXING:  cpu time    0.0024: real time    0.0024
    --------------------------------------------
      LOOP:  cpu time 3675.1905: real time 3676.7498

 eigenvalue-minimisations  : 63360
 total energy-change (2. order) :-0.8840294E+00  (-0.1059162E+02)
 number of electron    1936.0000027 magnetization 
 augmentation part      644.2181514 magnetization 

 Broyden mixing:
  rms(total) = 0.64246E+01    rms(broyden)= 0.64246E+01
  rms(prec ) = 0.65564E+01
  weight for this iteration     100.00

 eigenvalues of (default mixing * dielectric matrix)
  average eigenvalue GAMMA=   0.6348
  0.6910  0.6910  0.5225

 Free energy of the ion-electron system (eV)
  ---------------------------------------------------
  alpha Z        PSCENC =      5939.96892377
  Ewald energy   TEWEN  =    -84045.57151008
  -Hartree energ DENC   =   -103002.01278132
  -exchange      EXHF   =         0.00000000
  -V(xc)+E(xc)   XCENC  =      4041.41872530
  PAW double counting   =    188834.27943387  -188781.23101780
  entropy T*S    EENTRO =        -0.52622902
  eigenvalues    EBANDS =    -12183.57309138
  atomic energy  EATOM  =    188297.26599138
  Solvation  Ediel_sol  =         0.00000000
  ---------------------------------------------------
  free energy    TOTEN  =      -899.98155527 eV

  energy without entropy =     -899.45532625  energy(sigma->0) =     -899.71844076


--------------------------------------------------------------------------------------------------------




--------------------------------------- Iteration      3(   5)  ---------------------------------------


    POTLOK:  cpu time    0.1365: real time    0.1520
    SETDIJ:  cpu time    0.0479: real time    0.0479
     EDDAV:  cpu time 3685.2746: real time 3686.8113
       DOS:  cpu time    0.0034: real time    0.0040
    CHARGE:  cpu time    3.7126: real time    3.7133
    MIXING:  cpu time    0.0013: real time    0.0013
    --------------------------------------------
      LOOP:  cpu time 3689.1763: real time 3690.7298

 eigenvalue-minimisations  : 63360
 total energy-change (2. order) : 0.1907459E+01  (-0.2464332E+01)
 number of electron    1936.0000028 magnetization 
 augmentation part      642.7530478 magnetization 

 Broyden mixing:
  rms(total) = 0.53863E+01    rms(broyden)= 0.53863E+01
  rms(prec ) = 0.53958E+01
  weight for this iteration     100.00

 eigenvalues of (default mixing * dielectric matrix)
  average eigenvalue GAMMA=   0.7143
  0.9395  0.9395  0.6902  0.2878

 Free energy of the ion-electron system (eV)
  ---------------------------------------------------
  alpha Z        PSCENC =      5939.96892377
  Ewald energy   TEWEN  =    -84045.57151008
  -Hartree energ DENC   =   -103153.36409264
  -exchange      EXHF   =         0.00000000
  -V(xc)+E(xc)   XCENC  =      4043.02743485
  PAW double counting   =    188187.26624268  -188134.40896020
  entropy T*S    EENTRO =        -0.54656623
  eigenvalues    EBANDS =    -12031.71155958
  atomic energy  EATOM  =    188297.26599138
  Solvation  Ediel_sol  =         0.00000000
  ---------------------------------------------------
  free energy    TOTEN  =      -898.07409606 eV

  energy without entropy =     -897.52752983  energy(sigma->0) =     -897.80081294


--------------------------------------------------------------------------------------------------------




--------------------------------------- Iteration      3(   6)  ---------------------------------------


    POTLOK:  cpu time    0.1194: real time    0.1530
    SETDIJ:  cpu time    0.0386: real time    0.0386
