16
 Atoms. Timestep: 0
1 0 0 0
1 1.658 1.658 1.658
1 0 0 3.316
1 1.658 1.658 4.974
1 0 3.316 0
1 1.658 4.974 1.658
1 0 3.316 3.316
1 1.658 4.974 4.974
1 3.316 0 0
1 4.974 1.658 1.658
1 3.316 0 3.316
1 4.974 1.658 4.974
1 3.316 3.316 0
1 4.974 4.974 1.658
1 3.316 3.316 3.316
1 4.974 4.974 4.974
16
 Atoms. Timestep: 10
1 0.00137107 0.000687102 0.0109711
1 1.64369 1.66427 1.65519
1 0.0175971 -0.0161827 3.32064
1 1.64949 1.63649 4.96874
1 0.0150211 3.31784 -0.0168903
1 1.63978 4.96925 1.65563
1 0.0189949 3.3304 3.335
1 1.66252 4.97683 4.97442
1 3.30222 0.00702334 0.0146974
1 4.97281 1.65962 1.6519
1 3.30042 0.0106175 3.32021
1 4.97029 1.66668 4.96338
1 3.31158 3.29709 -0.0124181
1 4.99121 4.99152 1.64726
1 3.32295 3.30009 3.32665
1 4.97205 4.97977 4.97662
16
 Atoms. Timestep: 20
1 0.00255289 0.00157105 0.0214465
1 1.62945 1.67067 1.65258
1 0.0344848 -0.0318234 3.32527
1 1.64096 1.61531 4.96365
1 0.0295715 3.31954 -0.0335234
1 1.62251 4.96427 1.65327
1 0.0374266 3.34437 3.35353
1 1.6674 4.9796 4.97507
1 3.28874 0.0137702 0.0291989
1 4.97197 1.66151 1.64611
1 3.28537 0.0207381 3.32408
1 4.96698 1.67478 4.95293
1 3.30729 3.27875 -0.0243819
1 5.00762 5.00833 1.63685
1 3.32981 3.28486 3.33667
1 4.96986 4.98575 4.97925
16
 Atoms. Timestep: 30
1 0.00338519 0.0028397 0.0309504
1 1.61533 1.67734 1.65037
1 0.0499886 -0.0464239 3.32988
1 1.63241 1.59478 4.95887
1 0.0432024 3.32097 -0.0496642
1 1.60708 4.95883 1.65089
1 0.054771 3.35749 3.37113
1 1.67297 4.98229 4.97616
1 3.27582 0.0199851 0.0433272
1 4.9718 1.66389 1.64094
1 3.27138 0.0299012 3.32726
1 4.96444 1.68176 4.94284
1 3.30322 3.26152 -0.0354827
1 5.02248 5.02373 1.62712
1 3.33649 3.27097 3.3455
1 4.9672 4.99213 4.9819
16
 Atoms. Timestep: 40
1 0.00374192 0.00465133 0.0390555
1 1.60141 1.68437 1.64877
1 0.063495 -0.0595593 3.33442
1 1.62386 1.57524 4.95457
1 0.0554943 3.32202 -0.0651021
1 1.59426 4.95276 1.64849
1 0.0705529 3.3694 3.38745
1 1.67956 4.98484 4.97791
1 3.26372 0.0254532 0.0569295
1 4.97257 1.66698 1.63663
1 3.25893 0.037706 3.32942
1 4.96303 1.68714 4.93329
1 3.29948 3.24584 -0.0453738
1 5.03514 5.03713 1.61835
1 3.34286 3.25898 3.35265
1 4.96389 4.99905 4.98456
16
 Atoms. Timestep: 50
1 0.00353234 0.00711362 0.0454134
1 1.58776 1.69184 1.64795
1 0.0744761 -0.0709033 3.33881
1 1.61535 1.55704 4.9509
1 0.066066 3.32264 -0.0796545
1 1.58467 4.94596 1.64603
1 0.0843569 3.37979 3.40214
1 1.68743 4.98721 4.98049
1 3.25268 0.0300204 0.0698826
1 4.97445 1.67093 1.63336
1 3.24845 0.0438328 3.33027
1 4.963 1.69051 4.92445
1 3.29616 3.23207 -0.0537827
1 5.04506 5.04798 1.61081
1 3.34877 3.24936 3.3577
1 4.95978 5.00661 4.98723
16
 Atoms. Timestep: 60
1 0.00269877 0.0102655 0.0497796
1 1.57448 1.69974 1.64808
1 0.082513 -0.0802463 3.34292
1 1.60701 1.54051 4.94798
1 0.0745827 3.32281 -0.0931696
1 1.57873 4.93837 1.6435
1 0.0958359 3.38845 3.41498
1 1.69675 4.98938 4.98403
1 3.24291 0.0336082 0.082094
1 4.97759 1.67586 1.63128
1 3.24028 0.0480587 3.32953
1 4.96453 1.69158 4.91647
1 3.29337 3.22046 -0.0605191
1 5.05183 5.05587 1.60473
1 3.3541 3.24247 3.36038
1 4.95481 5.01482 4.98993
16
 Atoms. Timestep: 70
1 0.0012124 0.014064 0.0520328
1 1.5617 1.70805 1.64928
1 0.0873135 -0.0875051 3.34659
1 1.59903 1.52596 4.94589
1 0.080763 3.32258 -0.105526
1 1.57669 4.93002 1.6409
1 0.104717 3.39527 3.42579
1 1.7076 4.99131 4.98859
1 3.23457 0.0362236 0.0935021
1 4.98202 1.6818 1.63047
1 3.23469 0.0502689 3.32701
1 4.96765 1.69015 4.9095
1 3.2912 3.21113 -0.0654782
1 5.05521 5.06048 1.60026
1 3.35872 3.23853 3.36054
1 4.94893 5.02365 4.99264
16
 Atoms. Timestep: 80
1 -0.000931268 0.018378 0.052185
1 1.54956 1.71667 1.65163
1 0.0887258 -0.092723 3.34962
1 1.59164 1.51368 4.94466
1 0.0843857 3.32206 -0.116633
1 1.57859 4.92101 1.63826
1 0.110808 3.40026 3.43449
1 1.71996 4.99298 4.99417
1 3.22781 0.0379621 0.104073
1 4.98774 1.68876 1.63097
1 3.2318 0.0504607 3.32255
1 4.97227 1.68618 4.90362
1 3.28976 3.20411 -0.0686394
1 5.05514 5.06161 1.59749
1 3.36257 3.23762 3.35816
1 4.94219 5.03298 4.99538
16
 Atoms. Timestep: 90
1 -0.00371528 0.0229915 0.0503801
1 1.53821 1.72542 1.65518
1 0.0867454 -0.0960599 3.35178
1 1.58518 1.5039 4.94429
1 0.085296 3.32141 -0.126428
1 1.58427 4.91151 1.63559
1 0.113993 3.40353 3.44108
1 1.73367 4.99437 5.00067
1 3.22276 0.0390035 0.113798
1 4.99466 1.69667 1.63277
1 3.23165 0.0487411 3.31609
1 4.97814 1.67973 4.89893
1 3.28916 3.19929 -0.0700612
1 5.05171 5.05919 1.59643
1 3.36557 3.23968 3.35337
1 4.93469 5.04264 4.99814
16
 Atoms. Timestep: 100
1 -0.00710139 0.0276159 0.0468823
1 1.52784 1.7341 1.65991
1 0.0815149 -0.0977733 3.35285
1 1.58002 1.49677 4.94469
1 0.083412 3.32081 -0.134875
1 1.5934 4.90176 1.63297
1 0.114238 3.4053 3.4456
1 1.74848 4.99546 5.00793
1 3.21947 0.0396017 0.122687
1 5.00267 1.70539 1.63579
1 3.23413 0.0453179 3.3076
1 4.98492 1.67099 4.89545
1 3.28951 3.19646 -0.0698727
1 5.0452 5.05328 1.59703
1 3.36774 3.24452 3.34643
1 4.92656 5.05241 5.00093
