LAMMPS (8 Feb 2023)
Total wall time: 0:00:00
