LAMMPS (27 Oct 2021)
Total wall time: 0:00:26
