 vasp.5.4.4.18Apr17-6-g9f103f2a35 (build Aug 01 2017 10:32:50) complex          
  
 executed on             LinuxIFC date 2018.05.19  21:31:43
 running on  576 total cores
 distrk:  each k-point on  576 cores,    1 groups
 distr:  one band on NCORES_PER_BAND=   1 cores,  576 groups


--------------------------------------------------------------------------------------------------------


 INCAR:
 POTCAR:    PAW In_d_GW 15Mar2013                 
 POTCAR:    PAW P_GW 19Mar2012                    

 ----------------------------------------------------------------------------- 
|                                                                             |
|           W    W    AA    RRRRR   N    N  II  N    N   GGGG   !!!           |
|           W    W   A  A   R    R  NN   N  II  NN   N  G    G  !!!           |
|           W    W  A    A  R    R  N N  N  II  N N  N  G       !!!           |
|           W WW W  AAAAAA  RRRRR   N  N N  II  N  N N  G  GGG   !            |
|           WW  WW  A    A  R   R   N   NN  II  N   NN  G    G                |
|           W    W  A    A  R    R  N    N  II  N    N   GGGG   !!!           |
|                                                                             |
|      For optimal performance we recommend to set                            |
|        NCORE= 4 - approx SQRT( number of cores)                             |
|      NCORE specifies how many cores store one orbital (NPAR=cpu/NCORE).     |
|      This setting can  greatly improve the performance of VASP for DFT.     |
|      The default,   NCORE=1            might be grossly inefficient         |
|      on modern multi-core architectures or massively parallel machines.     |
|      Do your own testing !!!!                                               |
|      Unfortunately you need to use the default for GW and RPA calculations. |
|      (for HF NCORE is supported but not extensively tested yet)             |
|                                                                             |
 ----------------------------------------------------------------------------- 

 POTCAR:    PAW In_d_GW 15Mar2013                 
   VRHFIN =In: s2p1                                                             
   LEXCH  = CA                                                                  
   EATOM  =  1579.9794 eV,  116.1252 Ry                                         
                                                                                
   TITEL  = PAW In_d_GW 15Mar2013                                               
   LULTRA =        F    use ultrasoft PP ?                                      
   IUNSCR =        1    unscreen: 0-lin 1-nonlin 2-no                           
   RPACOR =    2.200    partial core radius                                     
   POMASS =  114.820; ZVAL   =   13.000    mass and valenz                      
   RCORE  =    2.500    outmost cutoff radius                                   
   RWIGS  =    2.500; RWIGS  =    1.323    wigner-seitz radius (au A)           
   ENMAX  =  278.582; ENMIN  =  208.936 eV                                      
   RCLOC  =    1.602    cutoff for local pot                                    
   LCOR   =        T    correct aug charges                                     
   LPAW   =        T    paw PP                                                  
   EAUG   =  662.551                                                            
   DEXC   =    0.000                                                            
   RMAX   =    2.552    core radius for proj-oper                               
   RAUG   =    1.300    factor for augmentation sphere                          
   RDEP   =    2.630    radius for radial grids                                 
   RDEPT  =    2.023    core radius for aug-charge                              
                                                                                
   Atomic configuration                                                         
   12 entries                                                                   
     n  l   j            E        occ.                                          
     1  0  0.50    -27589.7837   2.0000                                         
     2  0  0.50     -4136.3979   2.0000                                         
     2  1  1.50     -3718.7207   6.0000                                         
     3  0  0.50      -784.7368   2.0000                                         
     3  1  1.50      -647.3912   6.0000                                         
     3  2  2.50      -432.7327  10.0000                                         
     4  0  0.50      -119.0564   2.0000                                         
     4  1  1.50       -77.8989   6.0000                                         
     4  2  2.50       -18.7494  10.0000                                         
     5  0  0.50        -8.4628   2.0000                                         
     5  1  0.50        -2.7047   1.0000                                         
     4  3  2.50        -2.7212   0.0000                                         
   Description                                                                  
     l       E           TYP  RCUT    TYP  RCUT                                 
     2    -18.7494033     23  2.300                                             
     2    -20.1099859     23  2.300                                             
     2     68.0291300     23  2.300                                             
     0     -8.4627526     23  1.900                                             
     0     81.6349560     23  1.900                                             
     1     -2.7046683     23  2.100                                             
     1     81.6349560     23  2.300                                             
     3     20.4087390     23  2.500                                             
     3     40.8174780     23  2.500                                             
  local pseudopotential read in
  partial core-charges read in
  partial kinetic energy density read in
  kinetic energy density of atom read in
  atomic valenz-charges read in
  non local Contribution for L=           2  read in
    real space projection operators read in
  non local Contribution for L=           2  read in
    real space projection operators read in
  non local Contribution for L=           2  read in
    real space projection operators read in
  non local Contribution for L=           0  read in
    real space projection operators read in
  non local Contribution for L=           0  read in
    real space projection operators read in
  non local Contribution for L=           1  read in
    real space projection operators read in
  non local Contribution for L=           1  read in
    real space projection operators read in
  non local Contribution for L=           3  read in
    real space projection operators read in
  non local Contribution for L=           3  read in
    real space projection operators read in
    PAW grid and wavefunctions read in
 
   number of l-projection  operators is LMAX  =           9
   number of lm-projection operators is LMMAX =          37
 
 POTCAR:    PAW P_GW 19Mar2012                    
   VRHFIN =P : s2p3                                                             
   LEXCH  = CA                                                                  
   EATOM  =   176.5121 eV,   12.9733 Ry                                         
                                                                                
   TITEL  = PAW P_GW 19Mar2012                                                  
   LULTRA =        F    use ultrasoft PP ?                                      
   IUNSCR =        1    unscreen: 0-lin 1-nonlin 2-no                           
   RPACOR =    1.400    partial core radius                                     
   POMASS =   30.974; ZVAL   =    5.000    mass and valenz                      
   RCORE  =    2.000    outmost cutoff radius                                   
   RWIGS  =    1.900; RWIGS  =    1.005    wigner-seitz radius (au A)           
   ENMAX  =  255.155; ENMIN  =  191.366 eV                                      
   ICORE  =        3    local potential                                         
   LCOR   =        T    correct aug charges                                     
   LPAW   =        T    paw PP                                                  
   EAUG   =  499.732                                                            
   DEXC   =    0.000                                                            
   RMAX   =    2.047    core radius for proj-oper                               
   RAUG   =    1.300    factor for augmentation sphere                          
   RDEP   =    2.059    radius for radial grids                                 
   RDEPT  =    1.900    core radius for aug-charge                              
                                                                                
   Atomic configuration                                                         
    7 entries                                                                   
     n  l   j            E        occ.                                          
     1  0  0.50     -2072.7761   2.0000                                         
     2  0  0.50      -172.9483   2.0000                                         
     2  1  1.50      -124.4644   6.0000                                         
     3  0  0.50       -14.0086   2.0000                                         
     3  1  0.50        -5.6037   3.0000                                         
     3  2  1.50        -6.8029   0.0000                                         
     4  3  2.50        -1.3606   0.0000                                         
   Description                                                                  
     l       E           TYP  RCUT    TYP  RCUT                                 
     0    -14.0086211     23  1.900                                             
     0    102.0436950     23  1.900                                             
     1     -5.6037292     23  1.900                                             
     1    102.0436950     23  1.900                                             
     2     -8.1634956     23  2.000                                             
     2     81.6349560     23  2.000                                             
     3     27.2116520     23  2.000                                             
  local pseudopotential read in
  partial core-charges read in
  partial kinetic energy density read in
  kinetic energy density of atom read in
  atomic valenz-charges read in
  non local Contribution for L=           0  read in
    real space projection operators read in
  non local Contribution for L=           0  read in
    real space projection operators read in
  non local Contribution for L=           1  read in
    real space projection operators read in
  non local Contribution for L=           1  read in
    real space projection operators read in
  non local Contribution for L=           2  read in
    real space projection operators read in
  non local Contribution for L=           2  read in
    real space projection operators read in
    PAW grid and wavefunctions read in
 
   number of l-projection  operators is LMAX  =           6
   number of lm-projection operators is LMMAX =          18
 

 ----------------------------------------------------------------------------- 
|                                                                             |
|  ADVICE TO THIS USER RUNNING 'VASP/VAMP'   (HEAR YOUR MASTER'S VOICE ...):  |
|                                                                             |
|      You have a (more or less) 'large supercell' and for larger cells       |
|      it might be more efficient to use real space projection opertators     |
|      So try LREAL= Auto  in the INCAR   file.                               |
|      Mind:          For very  accurate calculation you might also keep the  |
|      reciprocal projection scheme          (i.e. LREAL=.FALSE.)             |
|                                                                             |
 ----------------------------------------------------------------------------- 

  PAW In_d_GW 15Mar2013                 :
 energy of atom  1       EATOM=-1579.9794
 kinetic energy error for atom=    0.0027 (will be added to EATOM!!)
  PAW P_GW 19Mar2012                    :
 energy of atom  2       EATOM= -176.5121
 kinetic energy error for atom=    0.0005 (will be added to EATOM!!)
 
 
 POSCAR: Initial State for  aa_0_C3v_tdA_sc3k2cl_
  positions in direct lattice
  No initial velocities read in
 exchange correlation table for  LEXCH =        2
   RHO(1)=    0.500       N(1)  =     2000
   RHO(2)=  100.500       N(2)  =     4000
 


--------------------------------------------------------------------------------------------------------


 ion  position               nearest neighbor table
   1  0.666  0.666  0.500- 113 2.53 115 2.53 125 2.54 109 2.55
   2  0.666  0.500  0.666- 114 2.53 116 2.53 126 2.54 109 2.55
   3  0.500  0.666  0.666- 117 2.53 118 2.53 127 2.54 109 2.55
   4  0.666  0.500  0.334- 113 2.53 119 2.53 128 2.54 110 2.55
   5  0.666  0.334  0.500- 114 2.53 120 2.53 129 2.54 110 2.55
   6  0.500  0.666  0.334- 115 2.53 119 2.53 130 2.54 111 2.55
   7  0.500  0.334  0.666- 120 2.53 116 2.53 132 2.54 112 2.55
   8  0.334  0.666  0.500- 117 2.53 121 2.53 131 2.54 111 2.55
   9  0.334  0.500  0.666- 118 2.53 121 2.53 133 2.54 112 2.55
  10  0.500  0.334  0.334- 123 2.53 122 2.53 134 2.54 110 2.55
  11  0.334  0.500  0.334- 122 2.53 124 2.53 135 2.54 111 2.55
  12  0.334  0.334  0.500- 123 2.53 124 2.53 136 2.54 112 2.55
  13  0.834  0.500  0.500- 137 2.53 140 2.53 113 2.53 114 2.53
  14  0.500  0.834  0.500- 138 2.53 143 2.53 115 2.53 117 2.53
  15  0.500  0.500  0.834- 139 2.53 144 2.53 116 2.53 118 2.53
  16  0.500  0.500  0.166- 146 2.53 147 2.53 119 2.53 122 2.53
  17  0.500  0.166  0.500- 148 2.53 149 2.53 120 2.53 123 2.53
  18  0.166  0.500  0.500- 150 2.53 151 2.53 121 2.53 124 2.53
  19  0.833  0.667  0.667- 125 2.53 126 2.53 137 2.54 177 2.54
  20  0.667  0.833  0.667- 125 2.53 127 2.53 138 2.54 178 2.54
  21  0.667  0.667  0.833- 126 2.53 127 2.53 139 2.54 179 2.54
  22  0.833  0.667  0.333- 153 2.53 159 2.53 141 2.53 113 2.54
  23  0.667  0.833  0.333- 154 2.53 161 2.53 141 2.53 115 2.54
  24  0.833  0.333  0.667- 155 2.53 160 2.53 142 2.53 114 2.54
  25  0.667  0.333  0.833- 156 2.53 162 2.53 142 2.53 116 2.54
  26  0.333  0.833  0.667- 157 2.53 163 2.53 145 2.53 117 2.54
  27  0.333  0.667  0.833- 158 2.53 164 2.53 145 2.53 118 2.54
  28  0.833  0.333  0.333- 128 2.53 129 2.53 140 2.54 180 2.54
  29  0.667  0.667  0.167- 165 2.53 166 2.53 141 2.53 119 2.54
  30  0.667  0.167  0.667- 167 2.53 168 2.53 142 2.53 120 2.54
  31  0.333  0.833  0.333- 130 2.53 131 2.53 143 2.54 181 2.54
  32  0.333  0.333  0.833- 132 2.53 133 2.53 144 2.54 182 2.54
  33  0.167  0.667  0.667- 169 2.53 170 2.53 145 2.53 121 2.54
  34  0.667  0.333  0.167- 128 2.53 134 2.53 146 2.54 183 2.54
  35  0.667  0.167  0.333- 129 2.53 134 2.53 148 2.54 184 2.54
  36  0.333  0.667  0.167- 130 2.53 135 2.53 147 2.54 185 2.54
  37  0.167  0.667  0.333- 131 2.53 135 2.53 150 2.54 186 2.54
  38  0.333  0.167  0.667- 132 2.53 136 2.53 149 2.54 187 2.54
  39  0.167  0.333  0.667- 133 2.53 136 2.53 151 2.54 188 2.54
  40  0.333  0.333  0.167- 171 2.53 173 2.53 152 2.53 122 2.54
  41  0.333  0.167  0.333- 172 2.53 174 2.53 152 2.53 123 2.54
  42  0.167  0.333  0.333- 175 2.53 176 2.53 152 2.53 124 2.54
  43  0.833  0.833  0.500- 153 2.54 154 2.54 189 2.54 125 2.54
  44  0.833  0.500  0.833- 155 2.54 156 2.54 190 2.54 126 2.54
  45  0.500  0.833  0.833- 157 2.54 158 2.54 191 2.54 127 2.54
  46  0.833  0.500  0.167- 159 2.54 165 2.54 192 2.54 128 2.54
  47  0.833  0.167  0.500- 160 2.54 167 2.54 193 2.54 129 2.54
  48  0.500  0.833  0.167- 161 2.54 166 2.54 194 2.54 130 2.54
  49  0.500  0.167  0.833- 162 2.54 168 2.54 196 2.54 132 2.54
  50  0.167  0.833  0.500- 169 2.54 163 2.54 195 2.54 131 2.54
  51  0.167  0.500  0.833- 164 2.54 170 2.54 197 2.54 133 2.54
  52  0.500  0.167  0.167- 171 2.54 172 2.54 198 2.54 134 2.54
  53  0.167  0.500  0.167- 173 2.54 175 2.54 199 2.54 135 2.54
  54  0.167  0.167  0.500- 176 2.54 174 2.54 200 2.54 136 2.54
  55  0.000  0.667  0.500- 153 2.53 169 2.53 137 2.53 150 2.53
  56  0.000  0.500  0.667- 155 2.53 170 2.53 137 2.53 151 2.53
  57  0.667  0.000  0.500- 154 2.53 167 2.53 138 2.53 148 2.53
  58  0.500  0.000  0.667- 157 2.53 168 2.53 138 2.53 149 2.53
  59  0.667  0.500  0.000- 156 2.53 165 2.53 139 2.53 146 2.53
  60  0.500  0.667  0.000- 158 2.53 166 2.53 139 2.53 147 2.53
  61  0.000  0.500  0.333- 159 2.53 175 2.53 140 2.53 150 2.53
  62  0.000  0.333  0.500- 160 2.53 176 2.53 140 2.53 151 2.53
  63  0.500  0.000  0.333- 161 2.53 172 2.53 143 2.53 148 2.53
  64  0.333  0.000  0.500- 163 2.53 174 2.53 143 2.53 149 2.53
  65  0.500  0.333  0.000- 162 2.53 171 2.53 144 2.53 146 2.53
  66  0.333  0.500  0.000- 164 2.53 173 2.53 144 2.53 147 2.53
  67  0.833  0.833  0.833- 177 2.53 178 2.53 179 2.53 213 2.54
  68  0.833  0.833  0.167- 201 2.53 203 2.53 205 2.53 141 2.54
  69  0.833  0.167  0.833- 202 2.53 206 2.53 207 2.53 142 2.54
  70  0.167  0.833  0.833- 204 2.53 208 2.53 209 2.53 145 2.54
  71  0.833  0.167  0.167- 180 2.53 183 2.53 184 2.53 214 2.54
  72  0.167  0.833  0.167- 181 2.53 185 2.53 186 2.53 215 2.54
  73  0.167  0.167  0.833- 182 2.53 187 2.53 188 2.53 216 2.54
  74  0.167  0.167  0.167- 210 2.53 211 2.53 212 2.53 152 2.54
  75  1.000  0.833  0.667- 189 2.53 177 2.54 208 2.54 169 2.54
  76  1.000  0.667  0.833- 190 2.53 177 2.54 209 2.54 170 2.54
  77  0.833  1.000  0.667- 189 2.53 178 2.54 206 2.54 167 2.54
  78  0.833  0.667  1.000- 190 2.53 179 2.54 203 2.54 165 2.54
  79  0.667  1.000  0.833- 191 2.53 178 2.54 207 2.54 168 2.54
  80  0.667  0.833  1.000- 191 2.53 179 2.54 205 2.54 166 2.54
  81  0.000  0.833  0.333- 195 2.53 186 2.54 201 2.54 153 2.54
  82  0.833  0.000  0.333- 193 2.53 184 2.54 201 2.54 154 2.54
  83  0.000  0.333  0.833- 197 2.53 188 2.54 202 2.54 155 2.54
  84  0.833  0.333  0.000- 192 2.53 183 2.54 202 2.54 156 2.54
  85  0.000  0.667  0.167- 199 2.53 186 2.54 203 2.54 159 2.54
  86  0.333  0.000  0.833- 196 2.53 187 2.54 204 2.54 157 2.54
  87  0.333  0.833  0.000- 194 2.53 185 2.54 204 2.54 158 2.54
  88  0.667  0.000  0.167- 198 2.53 184 2.54 205 2.54 161 2.54
  89  0.000  0.167  0.667- 200 2.53 188 2.54 206 2.54 160 2.54
  90  0.667  0.167  0.000- 198 2.53 183 2.54 207 2.54 162 2.54
  91  1.000  0.333  0.167- 192 2.53 180 2.54 211 2.54 175 2.54
  92  0.167  0.000  0.667- 200 2.53 187 2.54 208 2.54 163 2.54
  93  1.000  0.167  0.333- 193 2.53 180 2.54 212 2.54 176 2.54
  94  0.167  0.667  0.000- 199 2.53 185 2.54 209 2.54 164 2.54
  95  0.333  1.000  0.167- 194 2.53 181 2.54 210 2.54 172 2.54
  96  0.167  1.000  0.333- 195 2.53 181 2.54 212 2.54 174 2.54
  97  0.333  0.167  1.000- 196 2.53 182 2.54 210 2.54 171 2.54
  98  0.167  0.333  1.000- 197 2.53 182 2.54 211 2.54 173 2.54
  99  0.000  0.000  0.500- 189 2.54 193 2.54 195 2.54 200 2.54
 100  0.000  0.500  0.000- 190 2.54 192 2.54 197 2.54 199 2.54
 101  0.500  0.000  0.000- 191 2.54 194 2.54 196 2.54 198 2.54
 102  0.000  0.000  0.833- 213 2.53 216 2.53 206 2.54 208 2.54
 103  0.000  0.833  0.000- 213 2.53 215 2.53 203 2.54 209 2.54
 104  0.833  0.000  0.000- 213 2.53 214 2.53 205 2.54 207 2.54
 105  0.000  0.000  0.167- 214 2.53 215 2.53 201 2.54 212 2.54
 106  0.000  0.167  0.000- 214 2.53 216 2.53 202 2.54 211 2.54
 107  0.167  0.000  0.000- 215 2.53 216 2.53 204 2.54 210 2.54
 108  0.500  0.500  0.500-
 109  0.580  0.580  0.580-   1 2.55   2 2.55   3 2.55
 110  0.580  0.420  0.420-   4 2.55   5 2.55  10 2.55
 111  0.420  0.580  0.420-   6 2.55   8 2.55  11 2.55
 112  0.420  0.420  0.580-   7 2.55   9 2.55  12 2.55
 113  0.750  0.583  0.417-   1 2.53   4 2.53  13 2.53  22 2.54
 114  0.750  0.417  0.583-   2 2.53   5 2.53  13 2.53  24 2.54
 115  0.583  0.750  0.417-   1 2.53   6 2.53  14 2.53  23 2.54
 116  0.583  0.417  0.750-   2 2.53   7 2.53  15 2.53  25 2.54
 117  0.417  0.750  0.583-   3 2.53   8 2.53  14 2.53  26 2.54
 118  0.417  0.583  0.750-   9 2.53   3 2.53  15 2.53  27 2.54
 119  0.583  0.583  0.250-   4 2.53   6 2.53  16 2.53  29 2.54
 120  0.583  0.250  0.583-   5 2.53   7 2.53  17 2.53  30 2.54
 121  0.250  0.583  0.583-   8 2.53   9 2.53  18 2.53  33 2.54
 122  0.417  0.417  0.250-  11 2.53  10 2.53  16 2.53  40 2.54
 123  0.417  0.250  0.417-  10 2.53  12 2.53  17 2.53  41 2.54
 124  0.250  0.417  0.417-  11 2.53  12 2.53  18 2.53  42 2.54
 125  0.749  0.749  0.583-  19 2.53  20 2.53  43 2.54   1 2.54
 126  0.749  0.583  0.749-  19 2.53  21 2.53  44 2.54   2 2.54
 127  0.583  0.749  0.749-  20 2.53  21 2.53  45 2.54   3 2.54
 128  0.749  0.417  0.251-  28 2.53  34 2.53  46 2.54   4 2.54
 129  0.749  0.251  0.417-  28 2.53  35 2.53  47 2.54   5 2.54
 130  0.417  0.749  0.251-  31 2.53  36 2.53  48 2.54   6 2.54
 131  0.251  0.749  0.417-  31 2.53  37 2.53  50 2.54   8 2.54
 132  0.417  0.251  0.749-  32 2.53  38 2.53  49 2.54   7 2.54
 133  0.251  0.417  0.749-  32 2.53  39 2.53  51 2.54   9 2.54
 134  0.583  0.251  0.251-  34 2.53  35 2.53  52 2.54  10 2.54
 135  0.251  0.583  0.251-  36 2.53  37 2.53  53 2.54  11 2.54
 136  0.251  0.251  0.583-  38 2.53  39 2.53  54 2.54  12 2.54
 137  0.917  0.583  0.583-  13 2.53  55 2.53  56 2.53  19 2.54
 138  0.583  0.917  0.583-  14 2.53  57 2.53  58 2.53  20 2.54
 139  0.583  0.583  0.917-  15 2.53  59 2.53  60 2.53  21 2.54
 140  0.917  0.417  0.417-  13 2.53  61 2.53  62 2.53  28 2.54
 141  0.750  0.750  0.250-  22 2.53  23 2.53  29 2.53  68 2.54
 142  0.750  0.250  0.750-  24 2.53  25 2.53  30 2.53  69 2.54
 143  0.417  0.917  0.417-  14 2.53  63 2.53  64 2.53  31 2.54
 144  0.417  0.417  0.917-  15 2.53  65 2.53  66 2.53  32 2.54
 145  0.250  0.750  0.750-  26 2.53  27 2.53  33 2.53  70 2.54
 146  0.583  0.417  0.083-  16 2.53  59 2.53  65 2.53  34 2.54
 147  0.417  0.583  0.083-  16 2.53  60 2.53  66 2.53  36 2.54
 148  0.583  0.083  0.417-  17 2.53  57 2.53  63 2.53  35 2.54
 149  0.417  0.083  0.583-  17 2.53  58 2.53  64 2.53  38 2.54
 150  0.083  0.583  0.417-  18 2.53  55 2.53  61 2.53  37 2.54
 151  0.083  0.417  0.583-  18 2.53  56 2.53  62 2.53  39 2.54
 152  0.250  0.250  0.250-  40 2.53  41 2.53  42 2.53  74 2.54
 153  0.917  0.750  0.417-  22 2.53  55 2.53  43 2.54  81 2.54
 154  0.750  0.917  0.417-  23 2.53  57 2.53  43 2.54  82 2.54
 155  0.917  0.417  0.750-  24 2.53  56 2.53  44 2.54  83 2.54
 156  0.750  0.417  0.917-  25 2.53  59 2.53  44 2.54  84 2.54
 157  0.417  0.917  0.750-  26 2.53  58 2.53  45 2.54  86 2.54
 158  0.417  0.750  0.917-  27 2.53  60 2.53  45 2.54  87 2.54
 159  0.917  0.583  0.250-  22 2.53  61 2.53  46 2.54  85 2.54
 160  0.917  0.250  0.583-  24 2.53  62 2.53  47 2.54  89 2.54
 161  0.583  0.917  0.250-  23 2.53  63 2.53  48 2.54  88 2.54
 162  0.583  0.250  0.917-  25 2.53  65 2.53  49 2.54  90 2.54
 163  0.250  0.917  0.583-  26 2.53  64 2.53  50 2.54  92 2.54
 164  0.250  0.583  0.917-  27 2.53  66 2.53  51 2.54  94 2.54
 165  0.750  0.583  0.083-  29 2.53  59 2.53  46 2.54  78 2.54
 166  0.583  0.750  0.083-  29 2.53  60 2.53  48 2.54  80 2.54
 167  0.750  0.083  0.583-  30 2.53  57 2.53  47 2.54  77 2.54
 168  0.583  0.083  0.750-  30 2.53  58 2.53  49 2.54  79 2.54
 169  0.083  0.750  0.583-  33 2.53  55 2.53  50 2.54  75 2.54
 170  0.083  0.583  0.750-  33 2.53  56 2.53  51 2.54  76 2.54
 171  0.417  0.250  0.083-  40 2.53  65 2.53  52 2.54  97 2.54
 172  0.417  0.083  0.250-  41 2.53  63 2.53  52 2.54  95 2.54
 173  0.250  0.417  0.083-  40 2.53  66 2.53  53 2.54  98 2.54
 174  0.250  0.083  0.417-  41 2.53  64 2.53  54 2.54  96 2.54
 175  0.083  0.417  0.250-  42 2.53  61 2.53  53 2.54  91 2.54
 176  0.083  0.250  0.417-  42 2.53  62 2.53  54 2.54  93 2.54
 177  0.917  0.750  0.750-  67 2.53  75 2.54  76 2.54  19 2.54
 178  0.750  0.917  0.750-  67 2.53  77 2.54  79 2.54  20 2.54
 179  0.750  0.750  0.917-  67 2.53  78 2.54  80 2.54  21 2.54
 180  0.917  0.250  0.250-  71 2.53  91 2.54  93 2.54  28 2.54
 181  0.250  0.917  0.250-  72 2.53  95 2.54  96 2.54  31 2.54
 182  0.250  0.250  0.917-  73 2.53  97 2.54  98 2.54  32 2.54
 183  0.750  0.250  0.083-  71 2.53  84 2.54  90 2.54  34 2.54
 184  0.750  0.083  0.250-  71 2.53  82 2.54  88 2.54  35 2.54
 185  0.250  0.750  0.083-  72 2.53  87 2.54  94 2.54  36 2.54
 186  0.083  0.750  0.250-  72 2.53  81 2.54  85 2.54  37 2.54
 187  0.250  0.083  0.750-  73 2.53  86 2.54  92 2.54  38 2.54
 188  0.083  0.250  0.750-  73 2.53  83 2.54  89 2.54  39 2.54
 189  0.917  0.917  0.583-  75 2.53  77 2.53  99 2.54  43 2.54
 190  0.917  0.583  0.917-  76 2.53  78 2.53 100 2.54  44 2.54
 191  0.583  0.917  0.917-  79 2.53  80 2.53 101 2.54  45 2.54
 192  0.917  0.417  0.083-  84 2.53  91 2.53 100 2.54  46 2.54
 193  0.917  0.083  0.417-  82 2.53  93 2.53  99 2.54  47 2.54
 194  0.417  0.917  0.083-  87 2.53  95 2.53 101 2.54  48 2.54
 195  0.083  0.917  0.417-  81 2.53  96 2.53  99 2.54  50 2.54
 196  0.417  0.083  0.917-  86 2.53  97 2.53 101 2.54  49 2.54
 197  0.083  0.417  0.917-  83 2.53  98 2.53 100 2.54  51 2.54
 198  0.583  0.083  0.083-  88 2.53  90 2.53 101 2.54  52 2.54
 199  0.083  0.583  0.083-  85 2.53  94 2.53 100 2.54  53 2.54
 200  0.083  0.083  0.583-  89 2.53  92 2.53  99 2.54  54 2.54
 201  0.917  0.917  0.250-  68 2.53 105 2.54  82 2.54  81 2.54
 202  0.917  0.250  0.917-  69 2.53 106 2.54  84 2.54  83 2.54
 203  0.917  0.750  0.083-  68 2.53 103 2.54  85 2.54  78 2.54
 204  0.250  0.917  0.917-  70 2.53 107 2.54  87 2.54  86 2.54
 205  0.750  0.917  0.083-  68 2.53 104 2.54  88 2.54  80 2.54
 206  0.917  0.083  0.750-  69 2.53 102 2.54  89 2.54  77 2.54
 207  0.750  0.083  0.917-  69 2.53 104 2.54  90 2.54  79 2.54
 208  0.083  0.917  0.750-  70 2.53 102 2.54  92 2.54  75 2.54
 209  0.083  0.750  0.917-  70 2.53 103 2.54  94 2.54  76 2.54
 210  0.250  0.083  0.083-  74 2.53 107 2.54  97 2.54  95 2.54
 211  0.083  0.250  0.083-  74 2.53 106 2.54  98 2.54  91 2.54
 212  0.083  0.083  0.250-  74 2.53 105 2.54  96 2.54  93 2.54
 213  0.917  0.917  0.917- 102 2.53 103 2.53 104 2.53  67 2.54
 214  0.917  0.083  0.083- 104 2.53 105 2.53 106 2.53  71 2.54
 215  0.083  0.917  0.083- 103 2.53 105 2.53 107 2.53  72 2.54
 216  0.083  0.083  0.917- 102 2.53 106 2.53 107 2.53  73 2.54
 
  LATTYP: Found a simple cubic cell.
 ALAT       =    17.5612749176
  
  Lattice vectors:
  
 A1 = (  17.5612749176,   0.0000000000,   0.0000000000)
 A2 = (   0.0000000000,  17.5612749176,   0.0000000000)
 A3 = (   0.0000000000,   0.0000000000,  17.5612749176)


Analysis of symmetry for initial positions (statically):
=====================================================================
 Subroutine PRICEL returns:
 Original cell was already a primitive cell.
 

 Routine SETGRP: Setting up the symmetry group for a 
 simple cubic supercell.


 Subroutine GETGRP returns: Found 24 space group operations
 (whereof 24 operations were pure point group operations)
 out of a pool of 48 trial point group operations.


The static configuration has the point symmetry T_d .


Analysis of symmetry for dynamics (positions and initial velocities):
=====================================================================
 Subroutine PRICEL returns:
 Original cell was already a primitive cell.
 

 Routine SETGRP: Setting up the symmetry group for a 
 simple cubic supercell.


 Subroutine GETGRP returns: Found 24 space group operations
 (whereof 24 operations were pure point group operations)
 out of a pool of 48 trial point group operations.


The dynamic configuration has the point symmetry T_d .


 Subroutine INISYM returns: Found 24 space group operations
 (whereof 24 operations are pure point group operations),
 and found     1 'primitive' translations

 
 
 KPOINTS: K-Points                                

Automatic generation of k-mesh.
Space group operators:
 irot       det(A)        alpha          n_x          n_y          n_z        tau_x        tau_y        tau_z
    1     1.000000     0.000000     1.000000     0.000000     0.000000     0.000000     0.000000     0.000000
    2     1.000000   120.000000    -0.577350    -0.577350    -0.577350     0.000000     0.000000     0.000000
    3     1.000000   120.000000     0.577350     0.577350     0.577350     0.000000     0.000000     0.000000
    4    -1.000000    90.000000     0.000000     0.000000    -1.000000     0.000000     0.000000     0.000000
    5    -1.000000   180.000000     0.000000     0.707107     0.707107     0.000000     0.000000     0.000000
    6    -1.000000    90.000000     0.000000     1.000000     0.000000     0.000000     0.000000     0.000000
    7     1.000000   180.000000     0.000000     0.000000     1.000000     0.000000     0.000000     0.000000
    8     1.000000   120.000000    -0.577350     0.577350     0.577350     0.000000     0.000000     0.000000
    9     1.000000   120.000000    -0.577350     0.577350    -0.577350     0.000000     0.000000     0.000000
   10    -1.000000    90.000000     0.000000     0.000000     1.000000     0.000000     0.000000     0.000000
   11    -1.000000    90.000000    -1.000000     0.000000     0.000000     0.000000     0.000000     0.000000
   12    -1.000000   180.000000     0.707107     0.000000     0.707107     0.000000     0.000000     0.000000
   13     1.000000   120.000000     0.577350    -0.577350     0.577350     0.000000     0.000000     0.000000
   14     1.000000   120.000000    -0.577350    -0.577350     0.577350     0.000000     0.000000     0.000000
   15     1.000000   180.000000     1.000000     0.000000     0.000000     0.000000     0.000000     0.000000
   16    -1.000000    90.000000     0.000000    -1.000000     0.000000     0.000000     0.000000     0.000000
   17    -1.000000   180.000000     0.707107     0.707107     0.000000     0.000000     0.000000     0.000000
   18    -1.000000    90.000000     1.000000     0.000000     0.000000     0.000000     0.000000     0.000000
   19     1.000000   120.000000     0.577350    -0.577350    -0.577350     0.000000     0.000000     0.000000
   20     1.000000   180.000000     0.000000     1.000000     0.000000     0.000000     0.000000     0.000000
   21     1.000000   120.000000     0.577350     0.577350    -0.577350     0.000000     0.000000     0.000000
   22    -1.000000   180.000000     0.000000    -0.707107     0.707107     0.000000     0.000000     0.000000
   23    -1.000000   180.000000     0.707107    -0.707107     0.000000     0.000000     0.000000     0.000000
   24    -1.000000   180.000000     0.707107     0.000000    -0.707107     0.000000     0.000000     0.000000
 
 Subroutine IBZKPT returns following result:
 ===========================================
 
 Found      4 irreducible k-points:
 
 Following reciprocal coordinates:
            Coordinates               Weight
  0.000000  0.000000  0.000000      1.000000
  0.333333  0.000000  0.000000      6.000000
  0.333333  0.333333  0.000000     12.000000
  0.333333  0.333333  0.333333      8.000000
 
 Following cartesian coordinates:
            Coordinates               Weight
  0.000000  0.000000  0.000000      1.000000
  0.018981  0.000000  0.000000      6.000000
  0.018981  0.018981  0.000000     12.000000
  0.018981  0.018981  0.018981      8.000000
 


--------------------------------------------------------------------------------------------------------




 Dimension of arrays:
   k-points           NKPTS =      4   k-points in BZ     NKDIM =      4   number of bands    NBANDS=   1728
   number of dos      NEDOS =    301   number of ions     NIONS =    216
   non local maximal  LDIM  =      9   non local SUM 2l+1 LMDIM =     37
   total plane-waves  NPLWV = ******
   max r-space proj   IRMAX =      1   max aug-charges    IRDMAX=   7705
   dimension x,y,z NGX =   150 NGY =  150 NGZ =  150
   dimension x,y,z NGXF=   196 NGYF=  196 NGZF=  196
   support grid    NGXF=   196 NGYF=  196 NGZF=  196
   ions per type =             107 109
   NGX,Y,Z   is equivalent  to a cutoff of  14.20, 14.20, 14.20 a.u.
   NGXF,Y,Z  is equivalent  to a cutoff of  18.55, 18.55, 18.55 a.u.

 SYSTEM =  unknown system                          
 POSCAR =  Initial State for  aa_0_C3v_tdA_sc3k2cl_

 Startparameter for this run:
   NWRITE =      2    write-flag & timer
   PREC   = high      normal or accurate (medium, high low for compatibility)
   ISTART =      0    job   : 0-new  1-cont  2-samecut
   ICHARG =      2    charge: 1-file 2-atom 10-const
   ISPIN  =      1    spin polarized calculation?
   LNONCOLLINEAR =      F non collinear calculations
   LSORBIT =      F    spin-orbit coupling
   INIWAV =      1    electr: 0-lowe 1-rand  2-diag
   LASPH  =      F    aspherical Exc in radial PAW
   METAGGA=      F    non-selfconsistent MetaGGA calc.

 Electronic Relaxation 1
   ENCUT  =  650.0 eV  47.77 Ry    6.91 a.u.  36.51 36.51 36.51*2*pi/ulx,y,z
   ENINI  =  650.0     initial cutoff
   ENAUG  =  662.6 eV  augmentation charge cutoff
   NELM   =     60;   NELMIN=  2; NELMDL= -5     # of ELM steps 
   EDIFF  = 0.1E-05   stopping-criterion for ELM
   LREAL  =      F    real-space projection
   NLSPLINE    = F    spline interpolate recip. space projectors
   LCOMPAT=      F    compatible to vasp.4.4
   GGA_COMPAT  = T    GGA compatible to vasp.4.4-vasp.4.6
   LMAXPAW     = -100 max onsite density
   LMAXMIX     =    2 max onsite mixed and CHGCAR
   VOSKOWN=      0    Vosko Wilk Nusair interpolation
   ROPT   =    0.00000   0.00000
 Ionic relaxation
   EDIFFG = 0.1E-03   stopping-criterion for IOM
   NSW    =    100    number of steps for IOM
   NBLOCK =      1;   KBLOCK =      1    inner block; outer block 
   IBRION =      2    ionic relax: 0-MD 1-quasi-New 2-CG
   NFREE  =      0    steps in history (QN), initial steepest desc. (CG)
   ISIF   =      2    stress and relaxation
   IWAVPR =     11    prediction:  0-non 1-charg 2-wave 3-comb
   ISYM   =      2    0-nonsym 1-usesym 2-fastsym
   LCORR  =      T    Harris-Foulkes like correction to forces

   POTIM  = 0.5000    time-step for ionic-motion
   TEIN   =    0.0    initial temperature
   TEBEG  = 3500.0;   TEEND  =3500.0 temperature during run
   SMASS  =  -3.00    Nose mass-parameter (am)
   estimated Nose-frequenzy (Omega)   =  0.10E-29 period in steps =****** mass=  -0.705E-26a.u.
   SCALEE = 1.0000    scale energy and forces
   NPACO  =    256;   APACO  = 16.0  distance and # of slots for P.C.
   PSTRESS=   -7.8 pullay stress

  Mass of Ions in am
   POMASS = 114.82 30.97
  Ionic Valenz
   ZVAL   =  13.00  5.00
  Atomic Wigner-Seitz radii
   RWIGS  =  -1.00 -1.00
  virtual crystal weights 
   VCA    =   1.00  1.00
   NELECT =    1936.0000    total number of electrons
   NUPDOWN=      -1.0000    fix difference up-down

 DOS related values:
   EMIN   =  10.00;   EMAX   =-10.00  energy-range for DOS
   EFERMI =   0.00
   ISMEAR =     0;   SIGMA  =   0.10  broadening in eV -4-tet -1-fermi 0-gaus

 Electronic relaxation 2 (details)
   IALGO  =     38    algorithm
   LDIAG  =      T    sub-space diagonalisation (order eigenvalues)
   LSUBROT=      F    optimize rotation matrix (better conditioning)
   TURBO    =      0    0=normal 1=particle mesh
   IRESTART =      0    0=no restart 2=restart with 2 vectors
   NREBOOT  =      0    no. of reboots
   NMIN     =      0    reboot dimension
   EREF     =   0.00    reference energy to select bands
   IMIX   =      4    mixing-type and parameters
     AMIX     =   0.40;   BMIX     =  1.00
     AMIX_MAG =   1.60;   BMIX_MAG =  1.00
     AMIN     =   0.10
     WC   =   100.;   INIMIX=   1;  MIXPRE=   1;  MAXMIX= -45

 Intra band minimization:
   WEIMIN = 0.0010     energy-eigenvalue tresh-hold
   EBREAK =  0.14E-09  absolut break condition
   DEPER  =   0.30     relativ break condition  

   TIME   =   0.40     timestep for ELM

  volume/ion in A,a.u.               =      25.07       169.20
  Fermi-wavevector in a.u.,A,eV,Ry     =   1.161860  2.195598 18.366767  1.349919
  Thomas-Fermi vector in A             =   2.298428
 
 Write flags
   LWAVE        =      T    write WAVECAR
   LDOWNSAMPLE  =      F    k-point downsampling of WAVECAR
   LCHARG       =      T    write CHGCAR
   LVTOT        =      F    write LOCPOT, total local potential
   LVHAR        =      F    write LOCPOT, Hartree potential only
   LELF         =      F    write electronic localiz. function (ELF)
   LORBIT       =      0    0 simple, 1 ext, 2 COOP (PROOUT), +10 PAW based schemes


 Dipole corrections
   LMONO  =      F    monopole corrections only (constant potential shift)
   LDIPOL =      F    correct potential (dipole corrections)
   IDIPOL =      0    1-x, 2-y, 3-z, 4-all directions 
   EPSILON=  1.0000000 bulk dielectric constant

 Exchange correlation treatment:
   GGA     =    --    GGA type
   LEXCH   =     2    internal setting for exchange type
   VOSKOWN=      0    Vosko Wilk Nusair interpolation
   LHFCALC =     F    Hartree Fock is set to
   LHFONE  =     F    Hartree Fock one center treatment
   AEXX    =    0.0000 exact exchange contribution

 Linear response parameters
   LEPSILON=     F    determine dielectric tensor
   LRPA    =     F    only Hartree local field effects (RPA)
   LNABLA  =     F    use nabla operator in PAW spheres
   LVEL    =     F    velocity operator in full k-point grid
   LINTERFAST=   F  fast interpolation
   KINTER  =     0    interpolate to denser k-point grid
   CSHIFT  =0.1000    complex shift for real part using Kramers Kronig
   OMEGAMAX=  -1.0    maximum frequency
   DEG_THRESHOLD= 0.2000000E-02 threshold for treating states as degnerate
   RTIME   =   -0.100 relaxation time in fs
  (WPLASMAI=    0.000 imaginary part of plasma frequency in eV, 0.658/RTIME)
   DFIELD  = 0.0000000 0.0000000 0.0000000 field for delta impulse in time
 
 Orbital magnetization related:
   ORBITALMAG=     F  switch on orbital magnetization
   LCHIMAG   =     F  perturbation theory with respect to B field
   DQ        =  0.001000  dq finite difference perturbation B field
   LLRAUG    =     F  two centre corrections for induced B field



--------------------------------------------------------------------------------------------------------


 conjugate gradient relaxation of ions
 charge density and potential will be updated during run
 non-spin polarized calculation
 Variant of blocked Davidson
 Davidson routine will perform the subspace rotation
 perform sub-space diagonalisation
    after iterative eigenvector-optimisation
 modified Broyden-mixing scheme, WC =      100.0
 initial mixing is a Kerker type mixing with AMIX =  0.4000 and BMIX =      1.0000
 Hartree-type preconditioning will be used
 using additional bands          760
 reciprocal scheme for non local part
 use partial core corrections
 calculate Harris-corrections to forces 
   (improved forces if not selfconsistent)
 use of overlap-Matrix (Vanderbilt PP)
 Gauss-broadening in eV      SIGMA  =   0.10


--------------------------------------------------------------------------------------------------------


  energy-cutoff  :      650.00
  volume of cell :     5415.87
      direct lattice vectors                 reciprocal lattice vectors
    17.561274918  0.000000000  0.000000000     0.056943474  0.000000000  0.000000000
     0.000000000 17.561274918  0.000000000     0.000000000  0.056943474  0.000000000
     0.000000000  0.000000000 17.561274918     0.000000000  0.000000000  0.056943474

  length of vectors
    17.561274918 17.561274918 17.561274918     0.056943474  0.056943474  0.056943474


 
 k-points in units of 2pi/SCALE and weight: K-Points                                
   0.00000000  0.00000000  0.00000000       0.037
   0.01898116  0.00000000  0.00000000       0.222
   0.01898116  0.01898116  0.00000000       0.444
   0.01898116  0.01898116  0.01898116       0.296
 
 k-points in reciprocal lattice and weights: K-Points                                
   0.00000000  0.00000000  0.00000000       0.037
   0.33333333  0.00000000  0.00000000       0.222
   0.33333333  0.33333333  0.00000000       0.444
   0.33333333  0.33333333  0.33333333       0.296
 
 position of ions in fractional coordinates (direct lattice) 
   0.66558856  0.66558856  0.49974612
   0.66558856  0.49974612  0.66558856
   0.49974612  0.66558856  0.66558856
   0.66558856  0.50025388  0.33441144
   0.66558856  0.33441144  0.50025388
   0.50025388  0.66558856  0.33441144
   0.50025388  0.33441144  0.66558856
   0.33441144  0.66558856  0.50025388
   0.33441144  0.50025388  0.66558856
   0.49974612  0.33441144  0.33441144
   0.33441144  0.49974612  0.33441144
   0.33441144  0.33441144  0.49974612
   0.83356668  0.50000000  0.50000000
   0.50000000  0.83356668  0.50000000
   0.50000000  0.50000000  0.83356668
   0.50000000  0.50000000  0.16643332
   0.50000000  0.16643332  0.50000000
   0.16643332  0.50000000  0.50000000
   0.83304503  0.66662949  0.66662949
   0.66662949  0.83304503  0.66662949
   0.66662949  0.66662949  0.83304503
   0.83329412  0.66665158  0.33334842
   0.66665158  0.83329412  0.33334842
   0.83329412  0.33334842  0.66665158
   0.66665158  0.33334842  0.83329412
   0.33334842  0.83329412  0.66665158
   0.33334842  0.66665158  0.83329412
   0.83304503  0.33337051  0.33337051
   0.66665158  0.66665158  0.16670588
   0.66665158  0.16670588  0.66665158
   0.33337051  0.83304503  0.33337051
   0.33337051  0.33337051  0.83304503
   0.16670588  0.66665158  0.66665158
   0.66662949  0.33337051  0.16695497
   0.66662949  0.16695497  0.33337051
   0.33337051  0.66662949  0.16695497
   0.16695497  0.66662949  0.33337051
   0.33337051  0.16695497  0.66662949
   0.16695497  0.33337051  0.66662949
   0.33334842  0.33334842  0.16670588
   0.33334842  0.16670588  0.33334842
   0.16670588  0.33334842  0.33334842
   0.83303981  0.83303981  0.50008976
   0.83303981  0.50008976  0.83303981
   0.50008976  0.83303981  0.83303981
   0.83303981  0.49991024  0.16696019
   0.83303981  0.16696019  0.49991024
   0.49991024  0.83303981  0.16696019
   0.49991024  0.16696019  0.83303981
   0.16696019  0.83303981  0.49991024
   0.16696019  0.49991024  0.83303981
   0.50008976  0.16696019  0.16696019
   0.16696019  0.50008976  0.16696019
   0.16696019  0.16696019  0.50008976
   0.00000000  0.66666051  0.50000000
   0.00000000  0.50000000  0.66666051
   0.66666051  0.00000000  0.50000000
   0.50000000  0.00000000  0.66666051
   0.66666051  0.50000000  0.00000000
   0.50000000  0.66666051  0.00000000
   0.00000000  0.50000000  0.33333949
   0.00000000  0.33333949  0.50000000
   0.50000000  0.00000000  0.33333949
   0.33333949  0.00000000  0.50000000
   0.50000000  0.33333949  0.00000000
   0.33333949  0.50000000  0.00000000
   0.83330141  0.83330141  0.83330141
   0.83335480  0.83335480  0.16664520
   0.83335480  0.16664520  0.83335480
   0.16664520  0.83335480  0.83335480
   0.83330141  0.16669859  0.16669859
   0.16669859  0.83330141  0.16669859
   0.16669859  0.16669859  0.83330141
   0.16664520  0.16664520  0.16664520
   0.99997493  0.83330321  0.66664539
   0.99997493  0.66664539  0.83330321
   0.83330321  0.99997493  0.66664539
   0.83330321  0.66664539  0.99997493
   0.66664539  0.99997493  0.83330321
   0.66664539  0.83330321  0.99997493
   0.00002507  0.83330321  0.33335461
   0.83330321  0.00002507  0.33335461
   0.00002507  0.33335461  0.83330321
   0.83330321  0.33335461  0.00002507
   0.00002507  0.66664539  0.16669679
   0.33335461  0.00002507  0.83330321
   0.33335461  0.83330321  0.00002507
   0.66664539  0.00002507  0.16669679
   0.00002507  0.16669679  0.66664539
   0.66664539  0.16669679  0.00002507
   0.99997493  0.33335461  0.16669679
   0.16669679  0.00002507  0.66664539
   0.99997493  0.16669679  0.33335461
   0.16669679  0.66664539  0.00002507
   0.33335461  0.99997493  0.16669679
   0.16669679  0.99997493  0.33335461
   0.33335461  0.16669679  0.99997493
   0.16669679  0.33335461  0.99997493
   0.00000000  0.00000000  0.50000000
   0.00000000  0.50000000  0.00000000
   0.50000000  0.00000000  0.00000000
   0.00000000  0.00000000  0.83332522
   0.00000000  0.83332522  0.00000000
   0.83332522  0.00000000  0.00000000
   0.00000000  0.00000000  0.16667478
   0.00000000  0.16667478  0.00000000
   0.16667478  0.00000000  0.00000000
   0.50000000  0.50000000  0.50000000
   0.57968795  0.57968795  0.57968795
   0.57968795  0.42031205  0.42031205
   0.42031205  0.57968795  0.42031205
   0.42031205  0.42031205  0.57968795
   0.74998494  0.58318182  0.41681818
   0.74998494  0.41681818  0.58318182
   0.58318182  0.74998494  0.41681818
   0.58318182  0.41681818  0.74998494
   0.41681818  0.74998494  0.58318182
   0.41681818  0.58318182  0.74998494
   0.58318182  0.58318182  0.25001506
   0.58318182  0.25001506  0.58318182
   0.25001506  0.58318182  0.58318182
   0.41681818  0.41681818  0.25001506
   0.41681818  0.25001506  0.41681818
   0.25001506  0.41681818  0.41681818
   0.74929259  0.74929259  0.58310526
   0.74929259  0.58310526  0.74929259
   0.58310526  0.74929259  0.74929259
   0.74929259  0.41689474  0.25070741
   0.74929259  0.25070741  0.41689474
   0.41689474  0.74929259  0.25070741
   0.25070741  0.74929259  0.41689474
   0.41689474  0.25070741  0.74929259
   0.25070741  0.41689474  0.74929259
   0.58310526  0.25070741  0.25070741
   0.25070741  0.58310526  0.25070741
   0.25070741  0.25070741  0.58310526
   0.91666859  0.58339344  0.58339344
   0.58339344  0.91666859  0.58339344
   0.58339344  0.58339344  0.91666859
   0.91666859  0.41660656  0.41660656
   0.74998271  0.74998271  0.25001729
   0.74998271  0.25001729  0.74998271
   0.41660656  0.91666859  0.41660656
   0.41660656  0.41660656  0.91666859
   0.25001729  0.74998271  0.74998271
   0.58339344  0.41660656  0.08333141
   0.41660656  0.58339344  0.08333141
   0.58339344  0.08333141  0.41660656
   0.41660656  0.08333141  0.58339344
   0.08333141  0.58339344  0.41660656
   0.08333141  0.41660656  0.58339344
   0.25001729  0.25001729  0.25001729
   0.91661548  0.74995648  0.41669107
   0.74995648  0.91661548  0.41669107
   0.91661548  0.41669107  0.74995648
   0.74995648  0.41669107  0.91661548
   0.41669107  0.91661548  0.74995648
   0.41669107  0.74995648  0.91661548
   0.91661548  0.58330893  0.25004352
   0.91661548  0.25004352  0.58330893
   0.58330893  0.91661548  0.25004352
   0.58330893  0.25004352  0.91661548
   0.25004352  0.91661548  0.58330893
   0.25004352  0.58330893  0.91661548
   0.74995648  0.58330893  0.08338452
   0.58330893  0.74995648  0.08338452
   0.74995648  0.08338452  0.58330893
   0.58330893  0.08338452  0.74995648
   0.08338452  0.74995648  0.58330893
   0.08338452  0.58330893  0.74995648
   0.41669107  0.25004352  0.08338452
   0.41669107  0.08338452  0.25004352
   0.25004352  0.41669107  0.08338452
   0.25004352  0.08338452  0.41669107
   0.08338452  0.41669107  0.25004352
   0.08338452  0.25004352  0.41669107
   0.91659014  0.74993391  0.74993391
   0.74993391  0.91659014  0.74993391
   0.74993391  0.74993391  0.91659014
   0.91659014  0.25006609  0.25006609
   0.25006609  0.91659014  0.25006609
   0.25006609  0.25006609  0.91659014
   0.74993391  0.25006609  0.08340986
   0.74993391  0.08340986  0.25006609
   0.25006609  0.74993391  0.08340986
   0.08340986  0.74993391  0.25006609
   0.25006609  0.08340986  0.74993391
   0.08340986  0.25006609  0.74993391
   0.91655585  0.91655585  0.58329781
   0.91655585  0.58329781  0.91655585
   0.58329781  0.91655585  0.91655585
   0.91655585  0.41670219  0.08344415
   0.91655585  0.08344415  0.41670219
   0.41670219  0.91655585  0.08344415
   0.08344415  0.91655585  0.41670219
   0.41670219  0.08344415  0.91655585
   0.08344415  0.41670219  0.91655585
   0.58329781  0.08344415  0.08344415
   0.08344415  0.58329781  0.08344415
   0.08344415  0.08344415  0.58329781
   0.91666105  0.91666105  0.25002884
   0.91666105  0.25002884  0.91666105
   0.91666105  0.74997116  0.08333895
   0.25002884  0.91666105  0.91666105
   0.74997116  0.91666105  0.08333895
   0.91666105  0.08333895  0.74997116
   0.74997116  0.08333895  0.91666105
   0.08333895  0.91666105  0.74997116
   0.08333895  0.74997116  0.91666105
   0.25002884  0.08333895  0.08333895
   0.08333895  0.25002884  0.08333895
   0.08333895  0.08333895  0.25002884
   0.91665204  0.91665204  0.91665204
   0.91665204  0.08334796  0.08334796
   0.08334796  0.91665204  0.08334796
   0.08334796  0.08334796  0.91665204
 
 position of ions in cartesian coordinates  (Angst):
  11.68858361 11.68858361  8.77617905
  11.68858361  8.77617905 11.68858361
   8.77617905 11.68858361 11.68858361
  11.68858361  8.78509587  5.87269130
  11.68858361  5.87269130  8.78509587
   8.78509587 11.68858361  5.87269130
   8.78509587  5.87269130 11.68858361
   5.87269130 11.68858361  8.78509587
   5.87269130  8.78509587 11.68858361
   8.77617905  5.87269130  5.87269130
   5.87269130  8.77617905  5.87269130
   5.87269130  5.87269130  8.77617905
  14.63849369  8.78063746  8.78063746
   8.78063746 14.63849369  8.78063746
   8.78063746  8.78063746 14.63849369
   8.78063746  8.78063746  2.92278122
   8.78063746  2.92278122  8.78063746
   2.92278122  8.78063746  8.78063746
  14.62933277 11.70686378 11.70686378
  11.70686378 14.62933277 11.70686378
  11.70686378 11.70686378 14.62933277
  14.63370721 11.70725169  5.85402323
  11.70725169 14.63370721  5.85402323
  14.63370721  5.85402323 11.70725169
  11.70725169  5.85402323 14.63370721
   5.85402323 14.63370721 11.70725169
   5.85402323 11.70725169 14.63370721
  14.62933277  5.85441114  5.85441114
  11.70725169 11.70725169  2.92756771
  11.70725169  2.92756771 11.70725169
   5.85441114 14.62933277  5.85441114
   5.85441114  5.85441114 14.62933277
   2.92756771 11.70725169 11.70725169
  11.70686378  5.85441114  2.93194215
  11.70686378  2.93194215  5.85441114
   5.85441114 11.70686378  2.93194215
   2.93194215 11.70686378  5.85441114
   5.85441114  2.93194215 11.70686378
   2.93194215  5.85441114 11.70686378
   5.85402323  5.85402323  2.92756771
   5.85402323  2.92756771  5.85402323
   2.92756771  5.85402323  5.85402323
  14.62924115 14.62924115  8.78221383
  14.62924115  8.78221383 14.62924115
   8.78221383 14.62924115 14.62924115
  14.62924115  8.77906108  2.93203376
  14.62924115  2.93203376  8.77906108
   8.77906108 14.62924115  2.93203376
   8.77906108  2.93203376 14.62924115
   2.93203376 14.62924115  8.77906108
   2.93203376  8.77906108 14.62924115
   8.78221383  2.93203376  2.93203376
   2.93203376  8.78221383  2.93203376
   2.93203376  2.93203376  8.78221383
   0.00000000 11.70740855  8.78063746
   0.00000000  8.78063746 11.70740855
  11.70740855  0.00000000  8.78063746
   8.78063746  0.00000000 11.70740855
  11.70740855  8.78063746  0.00000000
   8.78063746 11.70740855  0.00000000
   0.00000000  8.78063746  5.85386637
   0.00000000  5.85386637  8.78063746
   8.78063746  0.00000000  5.85386637
   5.85386637  0.00000000  8.78063746
   8.78063746  5.85386637  0.00000000
   5.85386637  8.78063746  0.00000000
  14.63383514 14.63383514 14.63383514
  14.63477270 14.63477270  2.92650222
  14.63477270  2.92650222 14.63477270
   2.92650222 14.63477270 14.63477270
  14.63383514  2.92743978  2.92743978
   2.92743978 14.63383514  2.92743978
   2.92743978  2.92743978 14.63383514
   2.92650222  2.92650222  2.92650222
  17.56083459 14.63386670 11.70714290
  17.56083459 11.70714290 14.63386670
  14.63386670 17.56083459 11.70714290
  14.63386670 11.70714290 17.56083459
  11.70714290 17.56083459 14.63386670
  11.70714290 14.63386670 17.56083459
   0.00044033 14.63386670  5.85413201
  14.63386670  0.00044033  5.85413201
   0.00044033  5.85413201 14.63386670
  14.63386670  5.85413201  0.00044033
   0.00044033 11.70714290  2.92740822
   5.85413201  0.00044033 14.63386670
   5.85413201 14.63386670  0.00044033
  11.70714290  0.00044033  2.92740822
   0.00044033  2.92740822 11.70714290
  11.70714290  2.92740822  0.00044033
  17.56083459  5.85413201  2.92740822
   2.92740822  0.00044033 11.70714290
  17.56083459  2.92740822  5.85413201
   2.92740822 11.70714290  0.00044033
   5.85413201 17.56083459  2.92740822
   2.92740822 17.56083459  5.85413201
   5.85413201  2.92740822 17.56083459
   2.92740822  5.85413201 17.56083459
   0.00000000  0.00000000  8.78063746
   0.00000000  8.78063746  0.00000000
   8.78063746  0.00000000  0.00000000
   0.00000000  0.00000000 14.63425328
   0.00000000 14.63425328  0.00000000
  14.63425328  0.00000000  0.00000000
   0.00000000  0.00000000  2.92702164
   0.00000000  2.92702164  0.00000000
   2.92702164  0.00000000  0.00000000
   8.78063746  8.78063746  8.78063746
  10.18005952 10.18005952 10.18005952
  10.18005952  7.38121540  7.38121540
   7.38121540 10.18005952  7.38121540
   7.38121540  7.38121540 10.18005952
  13.17069163 10.24141625  7.31985867
  13.17069163  7.31985867 10.24141625
  10.24141625 13.17069163  7.31985867
  10.24141625  7.31985867 13.17069163
   7.31985867 13.17069163 10.24141625
   7.31985867 10.24141625 13.17069163
  10.24141625 10.24141625  4.39058328
  10.24141625  4.39058328 10.24141625
   4.39058328 10.24141625 10.24141625
   7.31985867  7.31985867  4.39058328
   7.31985867  4.39058328  7.31985867
   4.39058328  7.31985867  7.31985867
  13.15853319 13.15853319 10.24007177
  13.15853319 10.24007177 13.15853319
  10.24007177 13.15853319 13.15853319
  13.15853319  7.32120315  4.40274172
  13.15853319  4.40274172  7.32120315
   7.32120315 13.15853319  4.40274172
   4.40274172 13.15853319  7.32120315
   7.32120315  4.40274172 13.15853319
   4.40274172  7.32120315 13.15853319
  10.24007177  4.40274172  4.40274172
   4.40274172 10.24007177  4.40274172
   4.40274172  4.40274172 10.24007177
  16.09786916 10.24513266 10.24513266
  10.24513266 16.09786916 10.24513266
  10.24513266 10.24513266 16.09786916
  16.09786916  7.31614226  7.31614226
  13.17065253 13.17065253  4.39062238
  13.17065253  4.39062238 13.17065253
   7.31614226 16.09786916  7.31614226
   7.31614226  7.31614226 16.09786916
   4.39062238 13.17065253 13.17065253
  10.24513266  7.31614226  1.46340576
   7.31614226 10.24513266  1.46340576
  10.24513266  1.46340576  7.31614226
   7.31614226  1.46340576 10.24513266
   1.46340576 10.24513266  7.31614226
   1.46340576  7.31614226 10.24513266
   4.39062238  4.39062238  4.39062238
  16.09693652 13.17019200  7.31762645
  13.17019200 16.09693652  7.31762645
  16.09693652  7.31762645 13.17019200
  13.17019200  7.31762645 16.09693652
   7.31762645 16.09693652 13.17019200
   7.31762645 13.17019200 16.09693652
  16.09693652 10.24364847  4.39108292
  16.09693652  4.39108292 10.24364847
  10.24364847 16.09693652  4.39108292
  10.24364847  4.39108292 16.09693652
   4.39108292 16.09693652 10.24364847
   4.39108292 10.24364847 16.09693652
  13.17019200 10.24364847  1.46433840
  10.24364847 13.17019200  1.46433840
  13.17019200  1.46433840 10.24364847
  10.24364847  1.46433840 13.17019200
   1.46433840 13.17019200 10.24364847
   1.46433840 10.24364847 13.17019200
   7.31762645  4.39108292  1.46433840
   7.31762645  1.46433840  4.39108292
   4.39108292  7.31762645  1.46433840
   4.39108292  1.46433840  7.31762645
   1.46433840  7.31762645  4.39108292
   1.46433840  4.39108292  7.31762645
  16.09649144 13.16979557 13.16979557
  13.16979557 16.09649144 13.16979557
  13.16979557 13.16979557 16.09649144
  16.09649144  4.39147935  4.39147935
   4.39147935 16.09649144  4.39147935
   4.39147935  4.39147935 16.09649144
  13.16979557  4.39147935  1.46478348
  13.16979557  1.46478348  4.39147935
   4.39147935 13.16979557  1.46478348
   1.46478348 13.16979557  4.39147935
   4.39147935  1.46478348 13.16979557
   1.46478348  4.39147935 13.16979557
  16.09588934 16.09588934 10.24345329
  16.09588934 10.24345329 16.09588934
  10.24345329 16.09588934 16.09588934
  16.09588934  7.31782163  1.46538558
  16.09588934  1.46538558  7.31782163
   7.31782163 16.09588934  1.46538558
   1.46538558 16.09588934  7.31782163
   7.31782163  1.46538558 16.09588934
   1.46538558  7.31782163 16.09588934
  10.24345329  1.46538558  1.46538558
   1.46538558 10.24345329  1.46538558
   1.46538558  1.46538558 10.24345329
  16.09773679 16.09773679  4.39082524
  16.09773679  4.39082524 16.09773679
  16.09773679 13.17044968  1.46353813
   4.39082524 16.09773679 16.09773679
  13.17044968 16.09773679  1.46353813
  16.09773679  1.46353813 13.17044968
  13.17044968  1.46353813 16.09773679
   1.46353813 16.09773679 13.17044968
   1.46353813 13.17044968 16.09773679
   4.39082524  1.46353813  1.46353813
   1.46353813  4.39082524  1.46353813
   1.46353813  1.46353813  4.39082524
  16.09757846 16.09757846 16.09757846
  16.09757846  1.46369646  1.46369646
   1.46369646 16.09757846  1.46369646
   1.46369646  1.46369646 16.09757846
 


--------------------------------------------------------------------------------------------------------


 k-point  1 :   0.0000 0.0000 0.0000  plane waves:  203965
 k-point  2 :   0.3333 0.0000 0.0000  plane waves:  203781
 k-point  3 :   0.3333 0.3333 0.0000  plane waves:  203862
 k-point  4 :   0.3333 0.3333 0.3333  plane waves:  203778

 maximum and minimum number of plane-waves per node :    203965   203778

 maximum number of plane-waves:    203965
 maximum index in each direction: 
   IXMAX=   36   IYMAX=   36   IZMAX=   36
   IXMIN=  -36   IYMIN=  -36   IZMIN=  -36


 serial   3D FFT for wavefunctions
 parallel 3D FFT for charge:
    minimum data exchange during FFTs selected (reduces bandwidth)


 total amount of memory used by VASP MPI-rank0  1428173. kBytes
=======================================================================

   base      :      30000. kBytes
   nonl-proj :    1190891. kBytes
   fftplans  :      15087. kBytes
   grid      :     137526. kBytes
   one-center:      14193. kBytes
   wavefun   :      40476. kBytes
 
     INWAV:  cpu time    0.0000: real time    0.0000
 Broyden mixing: mesh for mixing (old mesh)
   NGX = 73   NGY = 73   NGZ = 73
  (NGX  =196   NGY  =196   NGZ  =196)
  gives a total of 389017 points

 initial charge density was supplied:
 charge density of overlapping atoms calculated
 number of electron    1936.0000000 magnetization 
 keeping initial charge density in first step


--------------------------------------------------------------------------------------------------------


 Maximum index for augmentation-charges          458 (set IRDMAX)


--------------------------------------------------------------------------------------------------------


 First call to EWALD:  gamma=   0.101
 Maximum number of real-space cells 3x 3x 3
 Maximum number of reciprocal cells 3x 3x 3

    FEWALD:  cpu time    0.0079: real time    0.0087


--------------------------------------- Iteration      1(   1)  ---------------------------------------


    POTLOK:  cpu time    0.1644: real time    0.2059
    SETDIJ:  cpu time    0.0356: real time    0.0358
     EDDAV:  cpu time 1075.4039: real time 1082.8605
       DOS:  cpu time    0.0157: real time    0.0167
    --------------------------------------------
      LOOP:  cpu time 1075.6198: real time 1083.1189

 eigenvalue-minimisations  : 20736
 total energy-change (2. order) : 0.1604640E+05  (-0.8170468E+05)
 number of electron    1936.0000000 magnetization 
 augmentation part     1936.0000000 magnetization 

 Free energy of the ion-electron system (eV)
  ---------------------------------------------------
  alpha Z        PSCENC =      5939.96892377
  Ewald energy   TEWEN  =   -130889.35737387
  -Hartree energ DENC   =    -57114.12408343
  -exchange      EXHF   =         0.00000000
  -V(xc)+E(xc)   XCENC  =      4054.69613570
  PAW double counting   =    161468.70292284  -161244.28685129
  entropy T*S    EENTRO =        -0.34671321
  eigenvalues    EBANDS =      5533.87962897
  atomic energy  EATOM  =    188297.26599138
  Solvation  Ediel_sol  =         0.00000000
  ---------------------------------------------------
  free energy    TOTEN  =     16046.39858086 eV

  energy without entropy =    16046.74529407  energy(sigma->0) =    16046.57193747


--------------------------------------------------------------------------------------------------------




--------------------------------------- Iteration      1(   2)  ---------------------------------------


     EDDAV:  cpu time 1670.2593: real time 1680.4180
       DOS:  cpu time    0.0106: real time    0.0115
    --------------------------------------------
      LOOP:  cpu time 1670.2699: real time 1680.4295

 eigenvalue-minimisations  : 27648
 total energy-change (2. order) :-0.1519073E+05  (-0.1443195E+05)
 number of electron    1936.0000000 magnetization 
 augmentation part     1936.0000000 magnetization 

 Free energy of the ion-electron system (eV)
  ---------------------------------------------------
  alpha Z        PSCENC =      5939.96892377
  Ewald energy   TEWEN  =   -130889.35737387
  -Hartree energ DENC   =    -57114.12408343
  -exchange      EXHF   =         0.00000000
  -V(xc)+E(xc)   XCENC  =      4054.69613570
  PAW double counting   =    161468.70292284  -161244.28685129
  entropy T*S    EENTRO =        -0.01894809
  eigenvalues    EBANDS =     -9657.17930301
  atomic energy  EATOM  =    188297.26599138
  Solvation  Ediel_sol  =         0.00000000
  ---------------------------------------------------
  free energy    TOTEN  =       855.66741400 eV

  energy without entropy =      855.68636209  energy(sigma->0) =      855.67688805


--------------------------------------------------------------------------------------------------------




--------------------------------------- Iteration      1(   3)  ---------------------------------------


     EDDAV:  cpu time 1653.8293: real time 1663.6931
       DOS:  cpu time    0.0117: real time    0.0122
    --------------------------------------------
      LOOP:  cpu time 1653.8410: real time 1663.7053

 eigenvalue-minimisations  : 27648
 total energy-change (2. order) :-0.1853409E+04  (-0.1840037E+04)
 number of electron    1936.0000000 magnetization 
 augmentation part     1936.0000000 magnetization 

 Free energy of the ion-electron system (eV)
  ---------------------------------------------------
  alpha Z        PSCENC =      5939.96892377
  Ewald energy   TEWEN  =   -130889.35737387
  -Hartree energ DENC   =    -57114.12408343
  -exchange      EXHF   =         0.00000000
  -V(xc)+E(xc)   XCENC  =      4054.69613570
  PAW double counting   =    161468.70292284  -161244.28685129
  entropy T*S    EENTRO =        -0.00900045
  eigenvalues    EBANDS =    -11510.59863195
  atomic energy  EATOM  =    188297.26599138
  Solvation  Ediel_sol  =         0.00000000
  ---------------------------------------------------
  free energy    TOTEN  =      -997.74196730 eV

  energy without entropy =     -997.73296685  energy(sigma->0) =     -997.73746708


--------------------------------------------------------------------------------------------------------




--------------------------------------- Iteration      1(   4)  ---------------------------------------


     EDDAV:  cpu time 1460.1416: real time 1469.3373
       DOS:  cpu time    0.0106: real time    0.0113
    --------------------------------------------
      LOOP:  cpu time 1460.1522: real time 1469.3486

 eigenvalue-minimisations  : 25344
 total energy-change (2. order) :-0.8605410E+02  (-0.8595744E+02)
 number of electron    1936.0000000 magnetization 
 augmentation part     1936.0000000 magnetization 

 Free energy of the ion-electron system (eV)
  ---------------------------------------------------
  alpha Z        PSCENC =      5939.96892377
  Ewald energy   TEWEN  =   -130889.35737387
  -Hartree energ DENC   =    -57114.12408343
  -exchange      EXHF   =         0.00000000
  -V(xc)+E(xc)   XCENC  =      4054.69613570
  PAW double counting   =    161468.70292284  -161244.28685129
  entropy T*S    EENTRO =        -0.00875169
  eigenvalues    EBANDS =    -11596.65298063
  atomic energy  EATOM  =    188297.26599138
  Solvation  Ediel_sol  =         0.00000000
  ---------------------------------------------------
  free energy    TOTEN  =     -1083.79606722 eV

  energy without entropy =    -1083.78731553  energy(sigma->0) =    -1083.79169137


--------------------------------------------------------------------------------------------------------




--------------------------------------- Iteration      1(   5)  ---------------------------------------


     EDDAV:  cpu time 1563.1785: real time 1572.7525
       DOS:  cpu time    0.0161: real time    0.0166
    CHARGE:  cpu time    2.1950: real time    2.2259
    MIXING:  cpu time    0.0027: real time    0.0029
    --------------------------------------------
      LOOP:  cpu time 1565.3922: real time 1574.9980

 eigenvalue-minimisations  : 26496
 total energy-change (2. order) :-0.8096412E+01  (-0.8095157E+01)
 number of electron    1936.0000001 magnetization 
 augmentation part      641.1595704 magnetization 

 Broyden mixing:
  rms(total) = 0.69253E+01    rms(broyden)= 0.69253E+01
  rms(prec ) = 0.71894E+01
  weight for this iteration     100.00

 Free energy of the ion-electron system (eV)
  ---------------------------------------------------
  alpha Z        PSCENC =      5939.96892377
  Ewald energy   TEWEN  =   -130889.35737387
  -Hartree energ DENC   =    -57114.12408343
  -exchange      EXHF   =         0.00000000
  -V(xc)+E(xc)   XCENC  =      4054.69613570
  PAW double counting   =    161468.70292284  -161244.28685129
  entropy T*S    EENTRO =        -0.00877469
  eigenvalues    EBANDS =    -11604.74936957
  atomic energy  EATOM  =    188297.26599138
  Solvation  Ediel_sol  =         0.00000000
  ---------------------------------------------------
  free energy    TOTEN  =     -1091.89247916 eV

  energy without entropy =    -1091.88370447  energy(sigma->0) =    -1091.88809181


--------------------------------------------------------------------------------------------------------




--------------------------------------- Iteration      1(   6)  ---------------------------------------


    POTLOK:  cpu time    0.1310: real time    0.1374
    SETDIJ:  cpu time    0.0423: real time    0.0425
     EDDAV:  cpu time 1657.7643: real time 1667.6037
       DOS:  cpu time    0.0107: real time    0.0114
    CHARGE:  cpu time    2.1683: real time    2.1904
    MIXING:  cpu time    0.0025: real time    0.0027
    --------------------------------------------
      LOOP:  cpu time 1660.1191: real time 1669.9881

 eigenvalue-minimisations  : 27648
 total energy-change (2. order) : 0.4192674E+02  (-0.8020845E+01)
 number of electron    1936.0000001 magnetization 
 augmentation part      648.6271982 magnetization 

 Broyden mixing:
  rms(total) = 0.31989E+01    rms(broyden)= 0.31989E+01
  rms(prec ) = 0.32734E+01
  weight for this iteration     100.00

 eigenvalues of (default mixing * dielectric matrix)
  average eigenvalue GAMMA=   1.7911
  1.7911

 Free energy of the ion-electron system (eV)
  ---------------------------------------------------
  alpha Z        PSCENC =      5939.96892377
  Ewald energy   TEWEN  =   -130889.35737387
  -Hartree energ DENC   =    -56675.79786863
  -exchange      EXHF   =         0.00000000
  -V(xc)+E(xc)   XCENC  =      4057.13610919
  PAW double counting   =    167628.50138585  -167384.80317514
  entropy T*S    EENTRO =        -0.00880877
  eigenvalues    EBANDS =    -12022.87092205
  atomic energy  EATOM  =    188297.26599138
  Solvation  Ediel_sol  =         0.00000000
  ---------------------------------------------------
  free energy    TOTEN  =     -1049.96573825 eV

  energy without entropy =    -1049.95692948  energy(sigma->0) =    -1049.96133387


--------------------------------------------------------------------------------------------------------




--------------------------------------- Iteration      1(   7)  ---------------------------------------


    POTLOK:  cpu time    0.1226: real time    0.1338
    SETDIJ:  cpu time    0.0362: real time    0.0363
     EDDAV:  cpu time 1664.1298: real time 1673.8327
       DOS:  cpu time    0.0141: real time    0.0150
    CHARGE:  cpu time    2.1526: real time    2.1868
    MIXING:  cpu time    0.0012: real time    0.0012
    --------------------------------------------
      LOOP:  cpu time 1666.4565: real time 1676.2059

 eigenvalue-minimisations  : 27648
 total energy-change (2. order) : 0.3392092E+01  (-0.3159076E+01)
 number of electron    1936.0000001 magnetization 
 augmentation part      650.1948695 magnetization 

 Broyden mixing:
  rms(total) = 0.17220E+01    rms(broyden)= 0.17220E+01
  rms(prec ) = 0.17405E+01
  weight for this iteration     100.00

 eigenvalues of (default mixing * dielectric matrix)
  average eigenvalue GAMMA=   1.3905
  2.1829  0.5981

 Free energy of the ion-electron system (eV)
  ---------------------------------------------------
  alpha Z        PSCENC =      5939.96892377
  Ewald energy   TEWEN  =   -130889.35737387
  -Hartree energ DENC   =    -56630.35138055
  -exchange      EXHF   =         0.00000000
  -V(xc)+E(xc)   XCENC  =      4068.58810047
  PAW double counting   =    175718.62529482  -175543.51189544
  entropy T*S    EENTRO =        -0.00992321
  eigenvalues    EBANDS =    -12007.79138414
  atomic energy  EATOM  =    188297.26599138
  Solvation  Ediel_sol  =         0.00000000
  ---------------------------------------------------
  free energy    TOTEN  =     -1046.57364675 eV

  energy without entropy =    -1046.56372355  energy(sigma->0) =    -1046.56868515


--------------------------------------------------------------------------------------------------------




--------------------------------------- Iteration      1(   8)  ---------------------------------------


    POTLOK:  cpu time    0.1327: real time    0.1424
    SETDIJ:  cpu time    0.0348: real time    0.0348
     EDDAV:  cpu time 1465.2674: real time 1474.2616
       DOS:  cpu time    0.0114: real time    0.0122
    CHARGE:  cpu time    2.1440: real time    2.1802
    MIXING:  cpu time    0.0015: real time    0.0015
    --------------------------------------------
      LOOP:  cpu time 1467.5918: real time 1476.6327

 eigenvalue-minimisations  : 25344
 total energy-change (2. order) : 0.3076357E+00  (-0.1536437E+00)
 number of electron    1936.0000001 magnetization 
 augmentation part      649.7234784 magnetization 

 Broyden mixing:
  rms(total) = 0.13496E+01    rms(broyden)= 0.13496E+01
  rms(prec ) = 0.13604E+01
  weight for this iteration     100.00

 eigenvalues of (default mixing * dielectric matrix)
  average eigenvalue GAMMA=   1.8412
  2.8632  1.3303  1.3303

 Free energy of the ion-electron system (eV)
  ---------------------------------------------------
  alpha Z        PSCENC =      5939.96892377
  Ewald energy   TEWEN  =   -130889.35737387
  -Hartree energ DENC   =    -56660.47962338
  -exchange      EXHF   =         0.00000000
  -V(xc)+E(xc)   XCENC  =      4071.49417702
  PAW double counting   =    178155.15133769  -178005.55602251
  entropy T*S    EENTRO =        -0.01000287
  eigenvalues    EBANDS =    -11954.74341826
  atomic energy  EATOM  =    188297.26599138
  Solvation  Ediel_sol  =         0.00000000
  ---------------------------------------------------
  free energy    TOTEN  =     -1046.26601102 eV

  energy without entropy =    -1046.25600815  energy(sigma->0) =    -1046.26100959


--------------------------------------------------------------------------------------------------------




--------------------------------------- Iteration      1(   9)  ---------------------------------------


    POTLOK:  cpu time    0.1370: real time    0.1406
    SETDIJ:  cpu time    0.0354: real time    0.0355
     EDDAV:  cpu time 1671.0684: real time 1680.9548
       DOS:  cpu time    0.0114: real time    0.0121
    CHARGE:  cpu time    2.1606: real time    2.1842
    MIXING:  cpu time    0.0013: real time    0.0013
    --------------------------------------------
      LOOP:  cpu time 1673.4140: real time 1683.3285

 eigenvalue-minimisations  : 27648
 total energy-change (2. order) : 0.2749036E+00  (-0.5414211E-01)
 number of electron    1936.0000001 magnetization 
 augmentation part      649.4521742 magnetization 

 Broyden mixing:
  rms(total) = 0.20232E+00    rms(broyden)= 0.20232E+00
  rms(prec ) = 0.21507E+00
  weight for this iteration     100.00

 eigenvalues of (default mixing * dielectric matrix)
  average eigenvalue GAMMA=   1.5919
  2.3572  1.8805  1.0650  1.0650

 Free energy of the ion-electron system (eV)
  ---------------------------------------------------
  alpha Z        PSCENC =      5939.96892377
  Ewald energy   TEWEN  =   -130889.35737387
  -Hartree energ DENC   =    -56675.22391367
  -exchange      EXHF   =         0.00000000
  -V(xc)+E(xc)   XCENC  =      4074.11715167
  PAW double counting   =    180878.19586831  -180744.86117717
  entropy T*S    EENTRO =        -0.00975040
  eigenvalues    EBANDS =    -11926.08682748
  atomic energy  EATOM  =    188297.26599138
  Solvation  Ediel_sol  =         0.00000000
  ---------------------------------------------------
  free energy    TOTEN  =     -1045.99110745 eV

  energy without entropy =    -1045.98135705  energy(sigma->0) =    -1045.98623225


--------------------------------------------------------------------------------------------------------




--------------------------------------- Iteration      1(  10)  ---------------------------------------


    POTLOK:  cpu time    0.1279: real time    0.1411
    SETDIJ:  cpu time    0.0368: real time    0.0369
     EDDAV:  cpu time 1672.4850: real time 1682.3447
       DOS:  cpu time    0.0103: real time    0.0110
    CHARGE:  cpu time    2.2569: real time    2.2818
    MIXING:  cpu time    0.0081: real time    0.0081
    --------------------------------------------
      LOOP:  cpu time 1674.9250: real time 1684.8236

 eigenvalue-minimisations  : 27648
 total energy-change (2. order) : 0.6753166E-01  (-0.2092310E-01)
 number of electron    1936.0000001 magnetization 
 augmentation part      649.0620787 magnetization 

 Broyden mixing:
  rms(total) = 0.57171E-01    rms(broyden)= 0.57171E-01
  rms(prec ) = 0.57905E-01
  weight for this iteration     100.00

 eigenvalues of (default mixing * dielectric matrix)
  average eigenvalue GAMMA=   1.5063
  2.4156  1.9736  1.2539  0.9442  0.9442

 Free energy of the ion-electron system (eV)
  ---------------------------------------------------
  alpha Z        PSCENC =      5939.96892377
  Ewald energy   TEWEN  =   -130889.35737387
  -Hartree energ DENC   =    -56692.11696352
  -exchange      EXHF   =         0.00000000
  -V(xc)+E(xc)   XCENC  =      4073.46671043
  PAW double counting   =    180309.63222948  -180174.46457566
  entropy T*S    EENTRO =        -0.00979725
  eigenvalues    EBANDS =    -11910.30872055
  atomic energy  EATOM  =    188297.26599138
  Solvation  Ediel_sol  =         0.00000000
  ---------------------------------------------------
  free energy    TOTEN  =     -1045.92357579 eV

  energy without entropy =    -1045.91377854  energy(sigma->0) =    -1045.91867716


--------------------------------------------------------------------------------------------------------




--------------------------------------- Iteration      1(  11)  ---------------------------------------


    POTLOK:  cpu time    0.1288: real time    0.1807
    SETDIJ:  cpu time    0.0355: real time    0.0356
     EDDAV:  cpu time 1482.5090: real time 1491.5442
       DOS:  cpu time    0.0182: real time    0.0188
    CHARGE:  cpu time    2.2829: real time    2.3104
    MIXING:  cpu time    0.0016: real time    0.0016
    --------------------------------------------
      LOOP:  cpu time 1484.9760: real time 1494.0912

 eigenvalue-minimisations  : 25344
 total energy-change (2. order) :-0.4691340E-02  (-0.3919961E-02)
 number of electron    1936.0000001 magnetization 
 augmentation part      648.9802531 magnetization 

 Broyden mixing:
  rms(total) = 0.65094E-01    rms(broyden)= 0.65094E-01
  rms(prec ) = 0.65337E-01
  weight for this iteration     100.00

 eigenvalues of (default mixing * dielectric matrix)
  average eigenvalue GAMMA=   1.5475
  2.3527  1.9260  1.9260  1.1232  1.1232  0.8338

 Free energy of the ion-electron system (eV)
  ---------------------------------------------------
  alpha Z        PSCENC =      5939.96892377
  Ewald energy   TEWEN  =   -130889.35737387
  -Hartree energ DENC   =    -56693.77433846
  -exchange      EXHF   =         0.00000000
  -V(xc)+E(xc)   XCENC  =      4073.57683676
  PAW double counting   =    180310.35346440  -180175.17148945
  entropy T*S    EENTRO =        -0.00979769
  eigenvalues    EBANDS =    -11908.78048397
  atomic energy  EATOM  =    188297.26599138
  Solvation  Ediel_sol  =         0.00000000
  ---------------------------------------------------
  free energy    TOTEN  =     -1045.92826713 eV

  energy without entropy =    -1045.91846944  energy(sigma->0) =    -1045.92336828


--------------------------------------------------------------------------------------------------------




--------------------------------------- Iteration      1(  12)  ---------------------------------------


    POTLOK:  cpu time    0.1312: real time    0.1427
    SETDIJ:  cpu time    0.0373: real time    0.0374
     EDDAV:  cpu time 1534.3011: real time 1543.6226
       DOS:  cpu time    0.0075: real time    0.0084
    CHARGE:  cpu time    2.1507: real time    2.1864
    MIXING:  cpu time    0.0016: real time    0.0016
    --------------------------------------------
      LOOP:  cpu time 1536.6295: real time 1545.9992

 eigenvalue-minimisations  : 25920
 total energy-change (2. order) :-0.3294998E-03  (-0.2725975E-03)
 number of electron    1936.0000001 magnetization 
 augmentation part      648.9730724 magnetization 

 Broyden mixing:
  rms(total) = 0.11841E-01    rms(broyden)= 0.11841E-01
  rms(prec ) = 0.12725E-01
  weight for this iteration     100.00

 eigenvalues of (default mixing * dielectric matrix)
  average eigenvalue GAMMA=   1.6107
  2.9027  2.3695  1.4522  1.4522  1.1951  0.9516  0.9516

 Free energy of the ion-electron system (eV)
  ---------------------------------------------------
  alpha Z        PSCENC =      5939.96892377
  Ewald energy   TEWEN  =   -130889.35737387
  -Hartree energ DENC   =    -56693.94874865
  -exchange      EXHF   =         0.00000000
  -V(xc)+E(xc)   XCENC  =      4073.47517400
  PAW double counting   =    180222.72979788  -180087.50881636
  entropy T*S    EENTRO =        -0.00979466
  eigenvalues    EBANDS =    -11908.54375012
  atomic energy  EATOM  =    188297.26599138
  Solvation  Ediel_sol  =         0.00000000
  ---------------------------------------------------
  free energy    TOTEN  =     -1045.92859663 eV

  energy without entropy =    -1045.91880197  energy(sigma->0) =    -1045.92369930


--------------------------------------------------------------------------------------------------------




--------------------------------------- Iteration      1(  13)  ---------------------------------------


    POTLOK:  cpu time    0.1329: real time    0.1400
    SETDIJ:  cpu time    0.0378: real time    0.0379
     EDDAV:  cpu time 1498.9881: real time 1508.1151
       DOS:  cpu time    0.0104: real time    0.0112
    CHARGE:  cpu time    2.1582: real time    2.1944
    MIXING:  cpu time    0.0017: real time    0.0017
    --------------------------------------------
      LOOP:  cpu time 1501.3291: real time 1510.5002

 eigenvalue-minimisations  : 25344
 total energy-change (2. order) : 0.1545361E-04  (-0.8944562E-04)
 number of electron    1936.0000001 magnetization 
 augmentation part      648.9528097 magnetization 

 Broyden mixing:
[...]
      8.77533      5.87436      5.87436        -0.001666     -0.000272     -0.000272
      5.87436      8.77533      5.87436        -0.000272     -0.001666     -0.000272
      5.87436      5.87436      8.77533        -0.000272     -0.000272     -0.001666
     14.63977      8.78064      8.78064        -0.000332     -0.000000     -0.000000
      8.78064     14.63977      8.78064         0.000000     -0.000332     -0.000000
      8.78064      8.78064     14.63977         0.000000     -0.000000     -0.000332
      8.78064      8.78064      2.92150         0.000000     -0.000000      0.000332
      8.78064      2.92150      8.78064         0.000000      0.000332     -0.000000
      2.92150      8.78064      8.78064         0.000332     -0.000000     -0.000000
     14.62934     11.70614     11.70614        -0.001564     -0.000138     -0.000138
     11.70614     14.62934     11.70614        -0.000138     -0.001564     -0.000138
     11.70614     11.70614     14.62934        -0.000138     -0.000138     -0.001564
     14.63393     11.70732      5.85396        -0.000407     -0.000302      0.000302
     11.70732     14.63393      5.85396        -0.000302     -0.000407      0.000302
     14.63393      5.85396     11.70732        -0.000407      0.000302     -0.000302
     11.70732      5.85396     14.63393        -0.000302      0.000302     -0.000407
      5.85396     14.63393     11.70732         0.000302     -0.000407     -0.000302
      5.85396     11.70732     14.63393         0.000302     -0.000302     -0.000407
     14.62934      5.85514      5.85514        -0.001564      0.000138      0.000138
     11.70732     11.70732      2.92735        -0.000302     -0.000302      0.000407
     11.70732      2.92735     11.70732        -0.000302      0.000407     -0.000302
      5.85514     14.62934      5.85514         0.000138     -0.001564      0.000138
      5.85514      5.85514     14.62934         0.000138      0.000138     -0.001564
      2.92735     11.70732     11.70732         0.000407     -0.000302     -0.000302
     11.70614      5.85514      2.93193        -0.000138      0.000138      0.001564
     11.70614      2.93193      5.85514        -0.000138      0.001564      0.000138
      5.85514     11.70614      2.93193         0.000138     -0.000138      0.001564
      2.93193     11.70614      5.85514         0.001564     -0.000138      0.000138
      5.85514      2.93193     11.70614         0.000138      0.001564     -0.000138
      2.93193      5.85514     11.70614         0.001564      0.000138     -0.000138
      5.85396      5.85396      2.92735         0.000302      0.000302      0.000407
      5.85396      2.92735      5.85396         0.000302      0.000407      0.000302
      2.92735      5.85396      5.85396         0.000407      0.000302      0.000302
     14.62679     14.62679      8.78275        -0.001209     -0.001209      0.000647
     14.62679      8.78275     14.62679        -0.001209      0.000647     -0.001209
      8.78275     14.62679     14.62679         0.000647     -0.001209     -0.001209
     14.62679      8.77853      2.93449        -0.001209     -0.000647      0.001209
     14.62679      2.93449      8.77853        -0.001209      0.001209     -0.000647
      8.77853     14.62679      2.93449        -0.000647     -0.001209      0.001209
      8.77853      2.93449     14.62679        -0.000647      0.001209     -0.001209
      2.93449     14.62679      8.77853         0.001209     -0.001209     -0.000647
      2.93449      8.77853     14.62679         0.001209     -0.000647     -0.001209
      8.78275      2.93449      2.93449         0.000647      0.001209      0.001209
      2.93449      8.78275      2.93449         0.001209      0.000647      0.001209
      2.93449      2.93449      8.78275         0.001209      0.001209      0.000647
     -0.00000     11.70765      8.78064         0.000000      0.000478     -0.000000
     -0.00000      8.78064     11.70765         0.000000     -0.000000      0.000478
     11.70765      0.00000      8.78064         0.000478     -0.000000     -0.000000
      8.78064      0.00000     11.70765         0.000000     -0.000000      0.000478
     11.70765      8.78064     -0.00000         0.000478     -0.000000     -0.000000
      8.78064     11.70765     -0.00000         0.000000      0.000478     -0.000000
     -0.00000      8.78064      5.85362         0.000000     -0.000000     -0.000478
     -0.00000      5.85362      8.78064         0.000000     -0.000478     -0.000000
      8.78064      0.00000      5.85362         0.000000     -0.000000     -0.000478
      5.85362      0.00000      8.78064        -0.000478     -0.000000     -0.000000
      8.78064      5.85362     -0.00000         0.000000     -0.000478     -0.000000
      5.85362      8.78064     -0.00000        -0.000478     -0.000000     -0.000000
     14.63341     14.63341     14.63341        -0.000588     -0.000588     -0.000588
     14.63449     14.63449      2.92678         0.000436      0.000436     -0.000436
     14.63449      2.92678     14.63449         0.000436     -0.000436      0.000436
      2.92678     14.63449     14.63449        -0.000436      0.000436      0.000436
     14.63341      2.92787      2.92787        -0.000588      0.000588      0.000588
      2.92787     14.63341      2.92787         0.000588     -0.000588      0.000588
      2.92787      2.92787     14.63341         0.000588      0.000588     -0.000588
      2.92678      2.92678      2.92678        -0.000436     -0.000436     -0.000436
     17.56047     14.63367     11.70652        -0.000216      0.000622     -0.000874
     17.56047     11.70652     14.63367        -0.000216     -0.000874      0.000622
     14.63367     17.56047     11.70652         0.000622     -0.000216     -0.000874
     14.63367     11.70652     17.56047         0.000622     -0.000874     -0.000216
     11.70652     17.56047     14.63367        -0.000874     -0.000216      0.000622
     11.70652     14.63367     17.56047        -0.000874      0.000622     -0.000216
      0.00080     14.63367      5.85476         0.000216      0.000622      0.000874
     14.63367      0.00080      5.85476         0.000622      0.000216      0.000874
      0.00080      5.85476     14.63367         0.000216      0.000874      0.000622
     14.63367      5.85476      0.00080         0.000622      0.000874      0.000216
      0.00080     11.70652      2.92760         0.000216     -0.000874     -0.000622
      5.85476      0.00080     14.63367         0.000874      0.000216      0.000622
      5.85476     14.63367      0.00080         0.000874      0.000622      0.000216
     11.70652      0.00080      2.92760        -0.000874      0.000216     -0.000622
      0.00080      2.92760     11.70652         0.000216     -0.000622     -0.000874
     11.70652      2.92760      0.00080        -0.000874     -0.000622      0.000216
     17.56047      5.85476      2.92760        -0.000216      0.000874     -0.000622
      2.92760      0.00080     11.70652        -0.000622      0.000216     -0.000874
     17.56047      2.92760      5.85476        -0.000216     -0.000622      0.000874
      2.92760     11.70652      0.00080        -0.000622     -0.000874      0.000216
      5.85476     17.56047      2.92760         0.000874     -0.000216     -0.000622
      2.92760     17.56047      5.85476        -0.000622     -0.000216      0.000874
      5.85476      2.92760     17.56047         0.000874     -0.000622     -0.000216
      2.92760      5.85476     17.56047        -0.000622      0.000874     -0.000216
     -0.00000      0.00000      8.78064         0.000000     -0.000000     -0.000000
     -0.00000      8.78064     -0.00000         0.000000     -0.000000     -0.000000
      8.78064      0.00000     -0.00000         0.000000     -0.000000     -0.000000
     -0.00000      0.00000     14.63399         0.000000     -0.000000     -0.000403
     -0.00000     14.63399     -0.00000         0.000000     -0.000403     -0.000000
     14.63399      0.00000     -0.00000        -0.000403     -0.000000     -0.000000
     -0.00000      0.00000      2.92728         0.000000     -0.000000      0.000403
     -0.00000      2.92728     -0.00000         0.000000      0.000403     -0.000000
      2.92728      0.00000     -0.00000         0.000403     -0.000000     -0.000000
      8.78064      8.78064      8.78064         0.000000     -0.000000     -0.000000
     10.17652     10.17652     10.17652         0.001164      0.001164      0.001164
     10.17652      7.38475      7.38475         0.001164     -0.001164     -0.001164
      7.38475     10.17652      7.38475        -0.001164      0.001164     -0.001164
      7.38475      7.38475     10.17652        -0.001164     -0.001164      0.001164
     13.17127     10.24109      7.32018         0.000215      0.000214     -0.000214
     13.17127      7.32018     10.24109         0.000215     -0.000214      0.000214
     10.24109     13.17127      7.32018         0.000214      0.000215     -0.000214
     10.24109      7.32018     13.17127         0.000214     -0.000214      0.000215
      7.32018     13.17127     10.24109        -0.000214      0.000215      0.000214
      7.32018     10.24109     13.17127        -0.000214      0.000214      0.000215
     10.24109     10.24109      4.39000         0.000214      0.000214     -0.000215
     10.24109      4.39000     10.24109         0.000214     -0.000215      0.000214
      4.39000     10.24109     10.24109        -0.000215      0.000214      0.000214
      7.32018      7.32018      4.39000        -0.000214     -0.000214     -0.000215
      7.32018      4.39000      7.32018        -0.000214     -0.000215     -0.000214
      4.39000      7.32018      7.32018        -0.000215     -0.000214     -0.000214
     13.15551     13.15551     10.23982         0.000590      0.000590      0.000597
     13.15551     10.23982     13.15551         0.000590      0.000597      0.000590
     10.23982     13.15551     13.15551         0.000597      0.000590      0.000590
     13.15551      7.32146      4.40576         0.000590     -0.000597     -0.000590
     13.15551      4.40576      7.32146         0.000590     -0.000590     -0.000597
      7.32146     13.15551      4.40576        -0.000597      0.000590     -0.000590
      4.40576     13.15551      7.32146        -0.000590      0.000590     -0.000597
      7.32146      4.40576     13.15551        -0.000597     -0.000590      0.000590
      4.40576      7.32146     13.15551        -0.000590     -0.000597      0.000590
     10.23982      4.40576      4.40576         0.000597     -0.000590     -0.000590
      4.40576     10.23982      4.40576        -0.000590      0.000597     -0.000590
      4.40576      4.40576     10.23982        -0.000590     -0.000590      0.000597
     16.09841     10.24514     10.24514        -0.000223     -0.000186     -0.000186
     10.24514     16.09841     10.24514        -0.000186     -0.000223     -0.000186
     10.24514     10.24514     16.09841        -0.000186     -0.000186     -0.000223
     16.09841      7.31613      7.31613        -0.000223      0.000186      0.000186
     13.17031     13.17031      4.39097        -0.000246     -0.000246      0.000246
     13.17031      4.39097     13.17031        -0.000246      0.000246     -0.000246
      7.31613     16.09841      7.31613         0.000186     -0.000223      0.000186
      7.31613      7.31613     16.09841         0.000186      0.000186     -0.000223
      4.39097     13.17031     13.17031         0.000246     -0.000246     -0.000246
     10.24514      7.31613      1.46286        -0.000186      0.000186      0.000223
      7.31613     10.24514      1.46286         0.000186     -0.000186      0.000223
     10.24514      1.46286      7.31613        -0.000186      0.000223      0.000186
      7.31613      1.46286     10.24514         0.000186      0.000223     -0.000186
      1.46286     10.24514      7.31613         0.000223     -0.000186      0.000186
      1.46286      7.31613     10.24514         0.000223      0.000186     -0.000186
      4.39097      4.39097      4.39097         0.000246      0.000246      0.000246
     16.09650     13.17011      7.31786        -0.000160     -0.000456      0.000061
     13.17011     16.09650      7.31786        -0.000456     -0.000160      0.000061
     16.09650      7.31786     13.17011        -0.000160      0.000061     -0.000456
     13.17011      7.31786     16.09650        -0.000456      0.000061     -0.000160
      7.31786     16.09650     13.17011         0.000061     -0.000160     -0.000456
      7.31786     13.17011     16.09650         0.000061     -0.000456     -0.000160
     16.09650     10.24342      4.39117        -0.000160     -0.000061      0.000456
     16.09650      4.39117     10.24342        -0.000160      0.000456     -0.000061
     10.24342     16.09650      4.39117        -0.000061     -0.000160      0.000456
     10.24342      4.39117     16.09650        -0.000061      0.000456     -0.000160
      4.39117     16.09650     10.24342         0.000456     -0.000160     -0.000061
      4.39117     10.24342     16.09650         0.000456     -0.000061     -0.000160
     13.17011     10.24342      1.46478        -0.000456     -0.000061      0.000160
     10.24342     13.17011      1.46478        -0.000061     -0.000456      0.000160
     13.17011      1.46478     10.24342        -0.000456      0.000160     -0.000061
     10.24342      1.46478     13.17011        -0.000061      0.000160     -0.000456
      1.46478     13.17011     10.24342         0.000160     -0.000456     -0.000061
      1.46478     10.24342     13.17011         0.000160     -0.000061     -0.000456
      7.31786      4.39117      1.46478         0.000061      0.000456      0.000160
      7.31786      1.46478      4.39117         0.000061      0.000160      0.000456
      4.39117      7.31786      1.46478         0.000456      0.000061      0.000160
      4.39117      1.46478      7.31786         0.000456      0.000160      0.000061
      1.46478      7.31786      4.39117         0.000160      0.000061      0.000456
      1.46478      4.39117      7.31786         0.000160      0.000456      0.000061
     16.09572     13.16884     13.16884         0.000076     -0.000251     -0.000251
     13.16884     16.09572     13.16884        -0.000251      0.000076     -0.000251
     13.16884     13.16884     16.09572        -0.000251     -0.000251      0.000076
     16.09572      4.39243      4.39243         0.000076      0.000251      0.000251
      4.39243     16.09572      4.39243         0.000251      0.000076      0.000251
      4.39243      4.39243     16.09572         0.000251      0.000251      0.000076
     13.16884      4.39243      1.46556        -0.000251      0.000251     -0.000076
     13.16884      1.46556      4.39243        -0.000251     -0.000076      0.000251
      4.39243     13.16884      1.46556         0.000251     -0.000251     -0.000076
      1.46556     13.16884      4.39243        -0.000076     -0.000251      0.000251
      4.39243      1.46556     13.16884         0.000251     -0.000076     -0.000251
      1.46556      4.39243     13.16884        -0.000076      0.000251     -0.000251
     16.09467     16.09467     10.24225        -0.000245     -0.000245     -0.000212
     16.09467     10.24225     16.09467        -0.000245     -0.000212     -0.000245
     10.24225     16.09467     16.09467        -0.000212     -0.000245     -0.000245
     16.09467      7.31902      1.46660        -0.000245      0.000212      0.000245
     16.09467      1.46660      7.31902        -0.000245      0.000245      0.000212
      7.31902     16.09467      1.46660         0.000212     -0.000245      0.000245
      1.46660     16.09467      7.31902         0.000245     -0.000245      0.000212
      7.31902      1.46660     16.09467         0.000212      0.000245     -0.000245
      1.46660      7.31902     16.09467         0.000245      0.000212     -0.000245
     10.24225      1.46660      1.46660        -0.000212      0.000245      0.000245
      1.46660     10.24225      1.46660         0.000245     -0.000212      0.000245
      1.46660      1.46660     10.24225         0.000245      0.000245     -0.000212
     16.09766     16.09766      4.39148         0.000019      0.000019      0.000266
     16.09766      4.39148     16.09766         0.000019      0.000266      0.000019
     16.09766     13.16980      1.46362         0.000019     -0.000266     -0.000019
      4.39148     16.09766     16.09766         0.000266      0.000019      0.000019
     13.16980     16.09766      1.46362        -0.000266      0.000019     -0.000019
     16.09766      1.46362     13.16980         0.000019     -0.000019     -0.000266
     13.16980      1.46362     16.09766        -0.000266     -0.000019      0.000019
      1.46362     16.09766     13.16980        -0.000019      0.000019     -0.000266
      1.46362     13.16980     16.09766        -0.000019     -0.000266      0.000019
      4.39148      1.46362      1.46362         0.000266     -0.000019     -0.000019
      1.46362      4.39148      1.46362        -0.000019      0.000266     -0.000019
      1.46362      1.46362      4.39148        -0.000019     -0.000019      0.000266
     16.09726     16.09726     16.09726        -0.000175     -0.000175     -0.000175
     16.09726      1.46401      1.46401        -0.000175      0.000175      0.000175
      1.46401     16.09726      1.46401         0.000175     -0.000175      0.000175
      1.46401      1.46401     16.09726         0.000175      0.000175     -0.000175
 -----------------------------------------------------------------------------------
    total drift:                                0.000000      0.000000     -0.000000


--------------------------------------------------------------------------------------------------------



  FREE ENERGIE OF THE ION-ELECTRON SYSTEM (eV)
  ---------------------------------------------------
  free  energy   TOTEN  =     -1045.92941398 eV

  energy  without entropy=    -1045.91943697  energy(sigma->0) =    -1045.92442547

  SIGMA =         0.10000000
  enthalpy is  TOTEN    =     -1072.46490935 eV   P V=      -26.53549537

 d Force = 0.2245771E-04[ 0.829E-05, 0.366E-04]  d Energy = 0.1723456E-04 0.522E-05
 d Force = 0.3897576E-01[ 0.386E-01, 0.394E-01]  d Ewald  = 0.3897573E-01 0.369E-07


--------------------------------------------------------------------------------------------------------


    POTLOK:  cpu time    0.1677: real time    0.1684


--------------------------------------------------------------------------------------------------------




--------------------------------------------------------------------------------------------------------


  
 reached required accuracy - stopping structural energy minimisation
 writing wavefunctions
     LOOP+:  cpu time 8651.3721: real time 8708.8886
    4ORBIT:  cpu time    0.0000: real time    0.0000

 total amount of memory used by VASP MPI-rank0  1428173. kBytes
=======================================================================

   base      :      30000. kBytes
   nonl-proj :    1190891. kBytes
   fftplans  :      15087. kBytes
   grid      :     137526. kBytes
   one-center:      14193. kBytes
   wavefun   :      40476. kBytes
 
  
  
 General timing and accounting informations for this job:
 ========================================================
  
                  Total CPU time used (sec):    90687.453
                            User time (sec):    89935.752
                          System time (sec):      751.698
                         Elapsed time (sec):    91283.693
  
                   Maximum memory used (kb):     2086016.
                   Average memory used (kb):           0.
  
                          Minor page faults:    479916295
                          Major page faults:           45
                 Voluntary context switches:       732454
