16
Lattice="25.0 0.0 0.0 0.0 25.0 0.0 0.0 0.0 50.0" Properties=species:S:1:pos:R:3 pbc="F F F" Time = 0.0 Energy=279.12371601125375
C  12.465000  6.290000  25.448000
C  13.440000  7.209000  25.912000
C  14.438000  6.744000  26.771000
C  14.592000  5.315000  26.985000
C  13.666000  4.372000  26.448000
C  12.631000  4.860000  25.657000
O  11.825000  3.908000  25.082000
C  10.847000  4.414000  24.116000
H  10.006000  4.937000  24.673000
H  11.287000  5.146000  23.422000
H  10.384000  3.547000  23.630000
H  11.655000  6.730000  24.778000
H  13.399000  8.287000  25.745000
H  15.223000  7.420000  27.209000
H  15.409000  4.853000  27.531000
H  13.780000  3.310000  26.684000
16
Lattice="25.0 0.0 0.0 0.0 25.0 0.0 0.0 0.0 50.0" Properties=species:S:1:pos:R:3 pbc="F F F" Time = 0.0 Energy=278.0174329904774
C  12.677000  6.371000  25.293000
C  13.553000  7.265000  25.929000
C  14.521000  6.810000  26.788000
C  14.760000  5.412000  27.122000
C  13.869000  4.553000  26.455000
C  12.853000  5.005000  25.569000
O  12.136000  3.901000  25.022000
C  10.988000  4.166000  24.230000
H  10.410000  4.992000  24.677000
H  11.079000  4.337000  23.140000
H  10.301000  3.280000  24.272000
H  11.944000  6.774000  24.504000
H  13.378000  8.339000  25.836000
H  15.170000  7.606000  27.252000
H  15.528000  5.012000  27.840000
H  14.135000  3.520000  26.579000
16
Lattice="25.0 0.0 0.0 0.0 25.0 0.0 0.0 0.0 50.0" Properties=species:S:1:pos:R:3 pbc="F F F" Time = 0.0 Energy=268.5209600143608
C  12.663000  6.949000  25.415000
C  13.473000  8.020000  25.743000
C  14.520000  7.768000  26.613000
C  14.692000  6.483000  27.162000
C  13.831000  5.425000  26.838000
C  12.789000  5.656000  25.937000
O  12.005000  4.616000  25.338000
C  10.880000  4.966000  24.523000
H  10.132000  5.463000  25.204000
H  11.219000  5.564000  23.662000
H  10.426000  4.007000  24.175000
H  11.944000  7.107000  24.636000
H  13.259000  8.935000  25.267000
H  15.165000  8.616000  26.828000
H  15.519000  6.330000  27.874000
H  14.037000  4.424000  27.226000
16
Lattice="25.0 0.0 0.0 0.0 25.0 0.0 0.0 0.0 50.0" Properties=species:S:1:pos:R:3 pbc="F F F" Time = 0.0 Energy=279.0383048374437
C  12.462000  6.889000  26.010000
C  13.272000  7.762000  26.751000
C  14.357000  7.079000  27.392000
C  14.644000  5.744000  27.283000
C  13.768000  4.884000  26.598000
C  12.776000  5.528000  25.854000
O  12.068000  4.647000  24.948000
C  11.051000  5.332000  24.267000
H  10.192000  5.425000  24.954000
H  11.416000  6.264000  23.807000
H  10.668000  4.650000  23.464000
H  11.588000  7.212000  25.489000
H  13.060000  8.812000  26.928000
H  15.109000  7.728000  27.851000
H  15.509000  5.356000  27.814000
H  13.796000  3.788000  26.555000
16
Lattice="25.0 0.0 0.0 0.0 25.0 0.0 0.0 0.0 50.0" Properties=species:S:1:pos:R:3 pbc="F F F" Time = 0.0 Energy=281.8847543149201
C  12.420000  6.855000  25.966000
C  13.282000  7.633000  26.793000
C  14.489000  7.091000  27.412000
C  14.627000  5.688000  27.366000
C  13.813000  4.833000  26.606000
C  12.731000  5.452000  25.860000
O  12.083000  4.665000  25.019000
C  10.979000  5.298000  24.220000
H  10.120000  5.451000  24.867000
H  11.373000  6.273000  23.837000
H  10.815000  4.643000  23.369000
H  11.505000  7.373000  25.577000
H  13.046000  8.694000  26.849000
H  14.965000  7.694000  28.209000
H  15.467000  5.194000  27.952000
H  13.994000  3.757000  26.512000
16
Lattice="25.0 0.0 0.0 0.0 25.0 0.0 0.0 0.0 50.0" Properties=species:S:1:pos:R:3 pbc="F F F" Time = 0.0 Energy=282.4960285652933
C  12.458000  6.315000  25.070000
C  13.274000  7.241000  25.759000
C  14.213000  6.832000  26.685000
C  14.243000  5.470000  27.137000
C  13.429000  4.527000  26.506000
C  12.537000  4.953000  25.473000
O  11.828000  3.955000  24.827000
C  10.811000  4.372000  23.943000
H  10.473000  5.372000  24.290000
H  11.203000  4.529000  22.909000
H  10.024000  3.567000  23.892000
H  11.875000  6.767000  24.184000
H  13.116000  8.298000  25.615000
H  14.605000  7.632000  27.373000
H  14.981000  5.229000  27.993000
H  13.356000  3.572000  27.032000
16
Lattice="25.0 0.0 0.0 0.0 25.0 0.0 0.0 0.0 50.0" Properties=species:S:1:pos:R:3 pbc="F F F" Time = 0.0 Energy=275.08210564367056
C  12.189000  6.274000  25.018000
C  12.901000  7.279000  25.740000
C  13.810000  6.903000  26.726000
C  13.947000  5.569000  26.997000
C  13.264000  4.549000  26.293000
C  12.315000  4.879000  25.355000
O  11.613000  3.815000  24.966000
C  10.638000  3.952000  23.884000
H  9.681000  4.287000  24.305000
H  11.012000  4.575000  23.096000
H  10.468000  2.898000  23.582000
H  11.427000  6.693000  24.334000
H  12.673000  8.359000  25.502000
H  14.407000  7.695000  27.243000
H  14.835000  5.181000  27.566000
H  13.427000  3.538000  26.729000
16
Lattice="25.0 0.0 0.0 0.0 25.0 0.0 0.0 0.0 50.0" Properties=species:S:1:pos:R:3 pbc="F F F" Time = 0.0 Energy=277.4253666591933
C  11.785000  6.123000  25.075000
C  12.452000  7.216000  25.538000
C  13.522000  7.045000  26.419000
C  13.911000  5.776000  26.917000
C  13.193000  4.646000  26.423000
C  12.208000  4.798000  25.432000
O  11.597000  3.574000  24.886000
C  10.555000  3.837000  23.856000
H  9.651000  4.230000  24.399000
H  10.949000  4.650000  23.148000
H  10.274000  2.886000  23.347000
H  10.965000  6.203000  24.418000
H  12.096000  8.227000  25.208000
H  14.068000  7.941000  26.753000
H  14.592000  5.735000  27.764000
H  13.584000  3.584000  26.516000
16
Lattice="25.0 0.0 0.0 0.0 25.0 0.0 0.0 0.0 50.0" Properties=species:S:1:pos:R:3 pbc="F F F" Time = 0.0 Energy=291.807097666805
C  11.548000  5.986000  25.010000
C  11.967000  7.057000  25.831000
C  13.110000  6.853000  26.666000
C  13.678000  5.507000  26.804000
C  13.083000  4.374000  26.090000
C  11.991000  4.661000  25.179000
O  11.420000  3.544000  24.645000
C  10.460000  3.791000  23.609000
H  9.503000  4.192000  24.073000
H  10.880000  4.552000  22.906000
H  10.291000  2.777000  23.162000
H  10.526000  6.242000  24.456000
H  11.488000  8.061000  25.724000
H  13.550000  7.671000  27.255000
H  14.505000  5.323000  27.542000
H  13.539000  3.383000  26.033000
16
Lattice="25.0 0.0 0.0 0.0 25.0 0.0 0.0 0.0 50.0" Properties=species:S:1:pos:R:3 pbc="F F F" Time = 0.0 Energy=279.72306141373195
C  12.159000  5.918000  25.590000
C  13.028000  6.877000  26.234000
C  14.066000  6.387000  27.061000
C  14.246000  5.017000  27.229000
C  13.549000  4.113000  26.472000
C  12.432000  4.556000  25.660000
O  11.686000  3.501000  25.156000
C  10.616000  3.706000  24.191000
H  9.903000  4.447000  24.655000
H  10.991000  4.195000  23.254000
H  10.126000  2.709000  24.040000
H  11.404000  6.341000  24.782000
H  12.840000  7.965000  26.198000
H  14.700000  7.093000  27.604000
H  15.107000  4.528000  27.789000
H  13.739000  3.075000  26.680000
16
Lattice="25.0 0.0 0.0 0.0 25.0 0.0 0.0 0.0 50.0" Properties=species:S:1:pos:R:3 pbc="F F F" Time = 0.0 Energy=281.79764530555207
C  12.162000  6.492000  25.847000
C  13.152000  7.423000  26.244000
C  14.368000  7.115000  26.856000
C  14.772000  5.700000  26.907000
C  13.865000  4.769000  26.332000
C  12.569000  5.157000  25.877000
O  11.818000  3.986000  25.614000
C  10.438000  4.067000  24.996000
H  9.709000  4.434000  25.743000
H  10.344000  4.577000  24.030000
H  10.167000  3.024000  24.804000
H  11.214000  6.848000  25.298000
H  12.897000  8.520000  26.017000
H  15.069000  7.849000  27.243000
H  15.815000  5.415000  27.206000
H  14.045000  3.687000  26.287000
16
Lattice="25.0 0.0 0.0 0.0 25.0 0.0 0.0 0.0 50.0" Properties=species:S:1:pos:R:3 pbc="F F F" Time = 0.0 Energy=290.59820911687876
C  12.190000  6.990000  25.721000
C  12.771000  8.030000  26.535000
C  13.805000  7.701000  27.526000
C  14.164000  6.390000  27.784000
C  13.619000  5.365000  26.956000
C  12.591000  5.648000  25.975000
O  12.080000  4.505000  25.403000
C  10.952000  4.521000  24.445000
H  10.094000  5.126000  24.855000
H  11.374000  4.987000  23.489000
H  10.603000  3.475000  24.222000
H  11.436000  7.298000  24.930000
H  12.557000  9.110000  26.345000
H  14.220000  8.503000  28.183000
H  14.805000  6.115000  28.587000
H  13.843000  4.251000  26.861000
16
Lattice="25.0 0.0 0.0 0.0 25.0 0.0 0.0 0.0 50.0" Properties=species:S:1:pos:R:3 pbc="F F F" Time = 0.0 Energy=275.16511171055157
C  12.194000  6.987000  25.738000
C  12.828000  7.981000  26.531000
C  13.722000  7.668000  27.605000
C  14.146000  6.371000  27.682000
C  13.630000  5.363000  26.883000
C  12.593000  5.658000  25.934000
O  12.179000  4.528000  25.336000
C  11.113000  4.509000  24.345000
H  10.221000  4.971000  24.774000
H  11.313000  5.030000  23.408000
H  10.930000  3.438000  24.204000
H  11.460000  7.266000  25.028000
H  12.475000  9.011000  26.401000
H  14.063000  8.542000  28.163000
H  14.992000  6.026000  28.377000
H  13.994000  4.380000  27.086000
16
Lattice="25.0 0.0 0.0 0.0 25.0 0.0 0.0 0.0 50.0" Properties=species:S:1:pos:R:3 pbc="F F F" Time = 0.0 Energy=278.697182215393
C  11.745000  6.611000  25.930000
C  12.346000  7.642000  26.664000
C  13.595000  7.558000  27.265000
C  14.374000  6.409000  27.067000
C  13.864000  5.334000  26.257000
C  12.496000  5.446000  25.784000
O  12.023000  4.329000  25.063000
C  10.932000  4.638000  24.117000
H  10.058000  5.122000  24.566000
H  11.349000  5.256000  23.323000
H  10.664000  3.672000  23.690000
H  10.773000  6.682000  25.489000
H  11.760000  8.510000  26.886000
H  14.038000  8.469000  27.696000
H  15.465000  6.428000  27.451000
H  14.449000  4.376000  26.116000
16
Lattice="25.0 0.0 0.0 0.0 25.0 0.0 0.0 0.0 50.0" Properties=species:S:1:pos:R:3 pbc="F F F" Time = 0.0 Energy=282.1464047675639
C  11.579000  5.974000  25.288000
C  11.783000  7.180000  26.023000
C  13.010000  7.307000  26.739000
C  13.872000  6.170000  26.818000
C  13.668000  4.964000  26.088000
C  12.439000  4.853000  25.456000
O  12.154000  3.597000  24.886000
C  10.930000  3.361000  24.147000
H  9.997000  3.719000  24.665000
H  10.974000  3.979000  23.263000
H  10.798000  2.311000  23.800000
H  10.572000  5.845000  24.783000
H  10.946000  7.938000  25.912000
H  13.156000  8.259000  27.252000
H  14.819000  6.372000  27.443000
H  14.321000  4.113000  26.218000
16
Lattice="25.0 0.0 0.0 0.0 25.0 0.0 0.0 0.0 50.0" Properties=species:S:1:pos:R:3 pbc="F F F" Time = 0.0 Energy=278.0174329904774
C  11.243000  5.889000  25.312000
C  11.695000  7.184000  25.647000
C  13.012000  7.261000  26.233000
C  13.624000  6.058000  26.687000
C  13.179000  4.795000  26.271000
C  12.011000  4.718000  25.534000
O  11.750000  3.453000  25.054000
C  10.769000  3.289000  23.950000
H  9.725000  3.589000  24.164000
H  11.170000  3.877000  23.069000
H  10.835000  2.214000  23.734000
H  10.355000  5.943000  24.705000
H  11.117000  8.110000  25.267000
H  13.420000  8.197000  26.540000
H  14.620000  6.098000  27.093000
H  13.577000  3.798000  26.472000
16
Lattice="25.0 0.0 0.0 0.0 25.0 0.0 0.0 0.0 50.0" Properties=species:S:1:pos:R:3 pbc="F F F" Time = 0.0 Energy=279.80889236230934
C  11.174000  6.749000  25.282000
C  11.310000  7.968000  26.008000
C  12.444000  8.139000  26.858000
C  13.402000  7.071000  27.003000
C  13.257000  5.890000  26.260000
C  12.113000  5.707000  25.368000
O  11.931000  4.485000  24.817000
C  10.696000  4.241000  24.180000
H  9.922000  4.157000  24.940000
H  10.338000  5.013000  23.419000
H  10.861000  3.212000  23.828000
H  10.347000  6.649000  24.630000
H  10.549000  8.737000  26.072000
H  12.637000  9.024000  27.522000
H  14.327000  7.211000  27.614000
H  13.987000  5.136000  26.540000
16
Lattice="25.0 0.0 0.0 0.0 25.0 0.0 0.0 0.0 50.0" Properties=species:S:1:pos:R:3 pbc="F F F" Time = 0.0 Energy=275.9144266894911
C  11.014000  6.150000  24.928000
C  11.217000  7.303000  25.660000
C  12.346000  7.396000  26.607000
C  13.128000  6.231000  26.795000
C  12.891000  5.067000  26.047000
C  11.816000  5.045000  25.149000
O  11.467000  3.846000  24.426000
C  10.567000  3.933000  23.332000
H  9.590000  4.159000  23.767000
H  10.865000  4.759000  22.569000
H  10.489000  2.865000  22.967000
H  10.208000  6.065000  24.199000
H  10.522000  8.140000  25.628000
H  12.340000  8.182000  27.284000
H  13.972000  6.185000  27.519000
H  13.377000  4.103000  26.318000
16
Lattice="25.0 0.0 0.0 0.0 25.0 0.0 0.0 0.0 50.0" Properties=species:S:1:pos:R:3 pbc="F F F" Time = 0.0 Energy=276.1651060595906
C  10.991000  6.732000  25.507000
C  11.309000  7.934000  26.139000
C  12.572000  8.028000  26.772000
C  13.597000  7.013000  26.564000
C  13.218000  5.783000  25.977000
C  11.924000  5.677000  25.453000
O  11.545000  4.364000  24.976000
C  10.238000  4.381000  24.280000
H  9.372000  4.721000  24.852000
H  10.367000  5.051000  23.361000
H  10.083000  3.371000  23.822000
H  10.056000  6.578000  24.992000
H  10.603000  8.801000  26.279000
H  12.917000  8.945000  27.290000
H  14.679000  7.271000  26.879000
H  14.015000  5.014000  25.887000
16
Lattice="25.0 0.0 0.0 0.0 25.0 0.0 0.0 0.0 50.0" Properties=species:S:1:pos:R:3 pbc="F F F" Time = 0.0 Energy=279.72306141373195
C  11.046000  6.906000  25.642000
C  11.533000  8.118000  26.267000
C  12.791000  8.154000  26.847000
C  13.617000  7.052000  26.761000
C  13.222000  5.857000  26.133000
C  11.921000  5.759000  25.566000
O  11.594000  4.607000  24.945000
C  10.367000  4.302000  24.231000
H  9.518000  4.456000  24.976000
H  10.210000  4.901000  23.317000
H  10.383000  3.241000  23.927000
H  10.020000  6.941000  25.228000
H  10.963000  9.046000  26.022000
H  13.079000  9.110000  27.272000
H  14.613000  7.210000  27.044000
H  13.857000  5.002000  26.053000
16
Lattice="25.0 0.0 0.0 0.0 25.0 0.0 0.0 0.0 50.0" Properties=species:S:1:pos:R:3 pbc="F F F" Time = 0.0 Energy=266.79262147711205
C  10.897000  6.290000  25.877000
C  11.374000  7.456000  26.453000
C  12.730000  7.671000  26.864000
C  13.608000  6.513000  26.658000
C  13.033000  5.323000  26.198000
C  11.739000  5.193000  25.707000
O  11.253000  3.998000  25.191000
C  10.033000  4.095000  24.394000
H  9.123000  4.278000  24.926000
H  10.082000  4.978000  23.710000
H  9.940000  3.251000  23.742000
H  9.890000  6.183000  25.490000
H  10.641000  8.300000  26.612000
H  13.106000  8.610000  27.286000
H  14.661000  6.585000  26.941000
H  13.661000  4.489000  26.048000
16
Lattice="25.0 0.0 0.0 0.0 25.0 0.0 0.0 0.0 50.0" Properties=species:S:1:pos:R:3 pbc="F F F" Time = 0.0 Energy=286.399868156019
C  10.686000  6.504000  25.013000
C  11.159000  7.704000  25.645000
C  12.301000  7.743000  26.509000
C  12.890000  6.541000  26.932000
C  12.472000  5.330000  26.278000
C  11.381000  5.332000  25.274000
O  11.213000  4.095000  24.661000
C  10.072000  3.794000  23.773000
H  9.132000  4.293000  24.105000
H  10.315000  4.112000  22.699000
H  10.048000  2.679000  23.685000
H  9.875000  6.540000  24.269000
H  10.681000  8.653000  25.479000
H  12.468000  8.622000  27.144000
H  13.636000  6.487000  27.668000
H  13.010000  4.421000  26.539000
16
Lattice="25.0 0.0 0.0 0.0 25.0 0.0 0.0 0.0 50.0" Properties=species:S:1:pos:R:3 pbc="F F F" Time = 0.0 Energy=276.0814956732571
C  10.666000  6.526000  24.910000
C  11.034000  7.743000  25.543000
C  12.040000  7.753000  26.482000
C  12.790000  6.564000  26.743000
C  12.460000  5.326000  26.212000
C  11.396000  5.301000  25.260000
O  11.107000  4.042000  24.780000
C  10.142000  3.878000  23.707000
H  9.171000  4.115000  24.134000
H  10.348000  4.571000  22.813000
H  10.278000  2.875000  23.290000
H  9.805000  6.561000  24.182000
H  10.483000  8.725000  25.326000
H  12.459000  8.694000  26.903000
H  13.668000  6.663000  27.465000
H  13.121000  4.507000  26.536000
16
Lattice="25.0 0.0 0.0 0.0 25.0 0.0 0.0 0.0 50.0" Properties=species:S:1:pos:R:3 pbc="F F F" Time = 0.0 Energy=273.26855864811733
C  10.648000  6.465000  24.851000
C  10.958000  7.668000  25.493000
C  12.056000  7.785000  26.357000
C  12.795000  6.615000  26.759000
C  12.466000  5.407000  26.142000
C  11.373000  5.314000  25.248000
O  11.114000  4.007000  24.798000
C  10.168000  3.985000  23.702000
H  9.105000  4.010000  23.987000
H  10.439000  4.846000  23.019000
H  10.253000  2.991000  23.245000
H  9.902000  6.347000  24.036000
H  10.342000  8.617000  25.275000
H  12.174000  8.672000  27.010000
H  13.699000  6.698000  27.488000
H  12.960000  4.415000  26.275000
16
Lattice="25.0 0.0 0.0 0.0 25.0 0.0 0.0 0.0 50.0" Properties=species:S:1:pos:R:3 pbc="F F F" Time = 0.0 Energy=273.43243784370844
C  10.336000  6.531000  24.851000
C  10.415000  7.757000  25.567000
C  11.493000  8.052000  26.378000
C  12.569000  7.115000  26.381000
C  12.566000  5.894000  25.714000
C  11.425000  5.580000  24.898000
O  11.523000  4.448000  24.086000
C  10.326000  3.700000  23.691000
H  9.803000  3.385000  24.587000
H  9.743000  4.287000  22.952000
H  10.753000  2.834000  23.180000
H  9.514000  6.383000  24.134000
H  9.664000  8.568000  25.488000
H  11.669000  8.914000  26.930000
H  13.427000  7.361000  27.035000
H  13.500000  5.339000  25.789000
16
Lattice="25.0 0.0 0.0 0.0 25.0 0.0 0.0 0.0 50.0" Properties=species:S:1:pos:R:3 pbc="F F F" Time = 0.0 Energy=273.5965137140017
C  10.287000  6.489000  25.170000
C  10.408000  7.745000  25.870000
C  11.678000  8.192000  26.307000
C  12.749000  7.367000  26.042000
C  12.678000  6.155000  25.394000
C  11.411000  5.721000  24.835000
O  11.529000  4.567000  24.141000
C  10.342000  3.902000  23.654000
H  9.596000  4.017000  24.446000
H  9.970000  4.279000  22.715000
H  10.751000  2.891000  23.530000
H  9.272000  6.226000  24.810000
H  9.481000  8.309000  26.198000
H  11.862000  9.190000  26.776000
H  13.743000  7.710000  26.385000
H  13.638000  5.646000  25.292000
16
Lattice="25.0 0.0 0.0 0.0 25.0 0.0 0.0 0.0 50.0" Properties=species:S:1:pos:R:3 pbc="F F F" Time = 0.0 Energy=276.3324788511419
C  10.624000  6.828000  25.159000
C  10.761000  8.059000  25.807000
C  11.824000  8.257000  26.744000
C  12.772000  7.257000  26.941000
C  12.666000  6.017000  26.293000
C  11.538000  5.810000  25.411000
O  11.416000  4.546000  24.723000
C  10.251000  4.149000  24.023000
H  9.394000  3.738000  24.568000
H  9.884000  4.964000  23.357000
H  10.561000  3.267000  23.427000
H  9.748000  6.624000  24.439000
H  10.024000  8.868000  25.767000
H  11.966000  9.232000  27.133000
H  13.658000  7.299000  27.576000
H  13.426000  5.299000  26.578000
16
Lattice="25.0 0.0 0.0 0.0 25.0 0.0 0.0 0.0 50.0" Properties=species:S:1:pos:R:3 pbc="F F F" Time = 0.0 Energy=273.43243784370844
C  10.530000  6.824000  25.521000
C  10.792000  8.021000  26.180000
C  11.932000  8.224000  26.998000
C  12.842000  7.168000  27.103000
C  12.579000  5.934000  26.486000
C  11.471000  5.741000  25.664000
O  11.281000  4.461000  25.077000
C  9.966000  4.242000  24.468000
H  9.154000  4.959000  24.730000
H  10.175000  4.240000  23.361000
H  9.734000  3.165000  24.633000
H  9.591000  6.739000  24.845000
H  10.064000  8.853000  26.075000
H  12.151000  9.170000  27.476000
H  13.781000  7.256000  27.650000
H  13.393000  5.216000  26.528000
16
Lattice="25.0 0.0 0.0 0.0 25.0 0.0 0.0 0.0 50.0" Properties=species:S:1:pos:R:3 pbc="F F F" Time = 0.0 Energy=281.5366410030153
C  10.924000  6.670000  25.594000
C  11.202000  7.892000  26.197000
C  12.368000  8.050000  26.923000
C  13.303000  6.986000  27.161000
C  13.076000  5.782000  26.473000
C  11.925000  5.633000  25.626000
O  11.813000  4.364000  25.118000
C  10.532000  3.834000  24.713000
H  9.693000  4.347000  25.117000
H  10.342000  3.845000  23.619000
H  10.514000  2.851000  25.179000
H  10.097000  6.569000  24.898000
H  10.471000  8.705000  26.036000
H  12.586000  9.040000  27.476000
H  14.131000  7.015000  27.894000
H  13.749000  4.924000  26.452000
16
Lattice="25.0 0.0 0.0 0.0 25.0 0.0 0.0 0.0 50.0" Properties=species:S:1:pos:R:3 pbc="F F F" Time = 0.0 Energy=274.0899249199783
C  11.119000  6.534000  25.508000
C  11.260000  7.709000  26.193000
C  12.313000  8.023000  27.113000
C  13.247000  6.931000  27.351000
C  13.037000  5.685000  26.711000
C  12.002000  5.469000  25.776000
O  11.685000  4.167000  25.354000
C  10.684000  3.931000  24.292000
H  9.641000  4.084000  24.661000
H  10.838000  4.696000  23.455000
H  10.756000  2.846000  23.984000
H  10.328000  6.399000  24.744000
H  10.479000  8.474000  25.992000
H  12.234000  8.982000  27.628000
H  14.034000  7.075000  28.076000
H  13.746000  4.809000  26.785000
16
Lattice="25.0 0.0 0.0 0.0 25.0 0.0 0.0 0.0 50.0" Properties=species:S:1:pos:R:3 pbc="F F F" Time = 0.0 Energy=274.83338764580105
C  11.040000  6.587000  25.526000
C  11.382000  7.790000  26.052000
C  12.436000  7.954000  26.949000
C  13.133000  6.775000  27.400000
C  12.829000  5.509000  26.848000
C  11.813000  5.418000  25.859000
O  11.807000  4.223000  25.220000
C  10.615000  4.026000  24.384000
H  9.772000  4.040000  25.051000
H  10.619000  4.829000  23.587000
H  10.796000  3.116000  23.786000
H  10.334000  6.449000  24.699000
H  10.790000  8.643000  25.701000
H  12.571000  8.970000  27.390000
H  13.915000  6.877000  28.154000
H  13.478000  4.604000  26.840000
16
Lattice="25.0 0.0 0.0 0.0 25.0 0.0 0.0 0.0 50.0" Properties=species:S:1:pos:R:3 pbc="F F F" Time = 0.0 Energy=277.8480134700688
C  11.263000  6.490000  25.460000
C  11.595000  7.559000  26.269000
C  12.708000  7.586000  27.115000
C  13.599000  6.441000  27.145000
C  13.251000  5.347000  26.330000
C  12.028000  5.335000  25.605000
O  11.743000  4.095000  25.011000
C  10.448000  4.033000  24.374000
H  9.631000  3.961000  25.164000
H  10.266000  4.922000  23.787000
H  10.476000  3.100000  23.738000
H  10.388000  6.592000  24.751000
H  10.938000  8.423000  26.291000
H  12.982000  8.530000  27.647000
H  14.512000  6.518000  27.836000
H  13.693000  4.328000  26.403000
16
Lattice="25.0 0.0 0.0 0.0 25.0 0.0 0.0 0.0 50.0" Properties=species:S:1:pos:R:3 pbc="F F F" Time = 0.0 Energy=272.85971879376643
C  11.474000  6.467000  25.745000
C  11.904000  7.589000  26.442000
C  13.172000  7.560000  27.126000
C  13.867000  6.364000  27.159000
C  13.383000  5.173000  26.555000
C  12.214000  5.219000  25.758000
O  11.781000  4.142000  25.018000
C  10.745000  4.348000  24.003000
H  9.700000  4.426000  24.470000
H  10.889000  5.254000  23.420000
H  10.651000  3.339000  23.492000
H  10.542000  6.524000  25.136000
H  11.419000  8.559000  26.501000
H  13.518000  8.518000  27.555000
H  14.839000  6.205000  27.678000
H  13.991000  4.277000  26.571000
16
Lattice="25.0 0.0 0.0 0.0 25.0 0.0 0.0 0.0 50.0" Properties=species:S:1:pos:R:3 pbc="F F F" Time = 0.0 Energy=277.25666774362065
C  11.837000  6.474000  25.586000
C  12.417000  7.543000  26.352000
C  13.454000  7.379000  27.251000
C  13.966000  6.081000  27.477000
C  13.353000  4.982000  26.833000
C  12.242000  5.179000  25.923000
O  11.665000  4.060000  25.333000
C  10.495000  4.197000  24.462000
H  9.711000  4.851000  24.915000
H  10.759000  4.692000  23.571000
H  10.026000  3.197000  24.411000
H  11.066000  6.698000  24.854000
H  12.104000  8.546000  26.242000
H  13.920000  8.324000  27.650000
H  14.798000  5.764000  28.129000
H  13.724000  4.006000  27.120000
16
Lattice="25.0 0.0 0.0 0.0 25.0 0.0 0.0 0.0 50.0" Properties=species:S:1:pos:R:3 pbc="F F F" Time = 0.0 Energy=271.8834765082789
C  11.614000  6.342000  25.703000
C  12.315000  7.377000  26.258000
C  13.496000  7.214000  26.977000
C  13.856000  5.862000  27.257000
C  13.197000  4.751000  26.650000
C  12.091000  4.978000  25.807000
O  11.607000  3.957000  25.036000
C  10.468000  4.215000  24.050000
H  9.541000  4.563000  24.628000
H  10.825000  4.905000  23.298000
H  10.282000  3.282000  23.514000
H  10.714000  6.547000  25.034000
H  11.924000  8.389000  26.108000
H  13.962000  8.131000  27.398000
H  14.782000  5.584000  27.742000
H  13.821000  3.798000  26.762000
16
Lattice="25.0 0.0 0.0 0.0 25.0 0.0 0.0 0.0 50.0" Properties=species:S:1:pos:R:3 pbc="F F F" Time = 0.0 Energy=276.0814956732571
C  11.645000  6.391000  25.344000
C  12.260000  7.402000  26.132000
C  13.336000  7.142000  27.012000
C  13.804000  5.817000  27.174000
C  13.211000  4.801000  26.489000
C  12.148000  5.118000  25.592000
O  11.600000  3.942000  25.074000
C  10.562000  4.220000  24.041000
H  9.647000  4.479000  24.554000
H  11.036000  5.024000  23.385000
H  10.438000  3.281000  23.413000
H  10.831000  6.646000  24.705000
H  11.915000  8.448000  25.987000
H  13.649000  8.048000  27.532000
H  14.676000  5.502000  27.789000
H  13.456000  3.800000  26.757000
16
Lattice="25.0 0.0 0.0 0.0 25.0 0.0 0.0 0.0 50.0" Properties=species:S:1:pos:R:3 pbc="F F F" Time = 0.0 Energy=278.3568926156184
C  11.590000  6.469000  25.105000
C  12.212000  7.534000  25.756000
C  13.232000  7.320000  26.661000
C  13.563000  5.989000  27.059000
C  12.912000  4.892000  26.494000
C  12.009000  5.126000  25.460000
O  11.606000  3.924000  24.934000
C  10.648000  4.041000  23.897000
H  9.964000  4.925000  24.183000
H  11.139000  4.022000  22.915000
H  10.094000  3.075000  23.991000
H  10.932000  6.568000  24.190000
H  11.963000  8.555000  25.495000
H  13.738000  8.180000  27.167000
H  14.339000  5.882000  27.869000
H  13.095000  3.858000  26.875000
16
Lattice="25.0 0.0 0.0 0.0 25.0 0.0 0.0 0.0 50.0" Properties=species:S:1:pos:R:3 pbc="F F F" Time = 0.0 Energy=269.95179994338946
C  11.217000  6.362000  24.857000
C  11.598000  7.475000  25.670000
C  12.651000  7.475000  26.541000
C  13.327000  6.248000  26.668000
C  12.963000  5.082000  25.972000
C  11.807000  5.124000  25.093000
O  11.428000  3.921000  24.429000
C  10.571000  4.002000  23.258000
H  9.526000  4.332000  23.465000
H  11.091000  4.562000  22.390000
H  10.427000  2.961000  22.866000
H  10.388000  6.484000  24.159000
H  11.059000  8.429000  25.550000
H  12.813000  8.396000  27.176000
H  14.119000  6.112000  27.517000
H  13.471000  4.167000  26.295000
16
Lattice="25.0 0.0 0.0 0.0 25.0 0.0 0.0 0.0 50.0" Properties=species:S:1:pos:R:3 pbc="F F F" Time = 0.0 Energy=279.89477600023514
C  10.850000  6.247000  24.742000
C  11.045000  7.467000  25.438000
C  12.055000  7.527000  26.440000
C  12.822000  6.428000  26.756000
C  12.632000  5.181000  26.134000
C  11.599000  5.122000  25.181000
O  11.508000  3.884000  24.655000
C  10.647000  3.755000  23.551000
H  9.628000  4.076000  23.861000
H  10.878000  4.473000  22.695000
H  10.724000  2.699000  23.196000
H  10.189000  6.234000  23.862000
H  10.459000  8.338000  25.104000
H  12.310000  8.426000  27.090000
H  13.472000  6.455000  27.636000
H  13.242000  4.275000  26.388000
16
Lattice="25.0 0.0 0.0 0.0 25.0 0.0 0.0 0.0 50.0" Properties=species:S:1:pos:R:3 pbc="F F F" Time = 0.0 Energy=275.6642019978138
C  11.240000  6.511000  24.964000
C  11.476000  7.606000  25.801000
C  11.848000  7.392000  27.183000
C  11.988000  6.127000  27.645000
C  11.806000  5.029000  26.801000
C  11.396000  5.238000  25.495000
O  11.122000  3.971000  24.953000
C  10.281000  4.033000  23.766000
H  9.363000  4.549000  24.039000
H  10.835000  4.435000  22.886000
H  10.039000  2.999000  23.519000
H  10.847000  6.732000  23.954000
H  11.372000  8.663000  25.452000
H  12.109000  8.194000  27.817000
H  12.577000  5.969000  28.572000
H  11.948000  4.023000  27.173000
16
Lattice="25.0 0.0 0.0 0.0 25.0 0.0 0.0 0.0 50.0" Properties=species:S:1:pos:R:3 pbc="F F F" Time = 0.0 Energy=279.89477600023514
C  11.264000  6.432000  25.036000
C  11.558000  7.545000  25.810000
C  11.967000  7.402000  27.172000
C  12.091000  6.117000  27.755000
C  11.814000  4.971000  26.954000
C  11.378000  5.137000  25.621000
O  11.164000  3.967000  24.909000
C  10.299000  4.052000  23.716000
H  9.394000  4.558000  24.059000
H  10.839000  4.541000  22.792000
H  10.120000  2.995000  23.432000
H  11.004000  6.580000  23.970000
H  11.415000  8.564000  25.421000
H  12.002000  8.336000  27.695000
H  12.173000  5.947000  28.863000
H  11.741000  3.942000  27.261000
16
Lattice="25.0 0.0 0.0 0.0 25.0 0.0 0.0 0.0 50.0" Properties=species:S:1:pos:R:3 pbc="F F F" Time = 0.0 Energy=286.8503240669282
C  11.774000  5.808000  25.384000
C  12.464000  6.676000  26.225000
C  13.505000  6.171000  27.066000
C  13.852000  4.779000  27.113000
C  13.175000  3.925000  26.197000
C  12.150000  4.429000  25.392000
O  11.434000  3.483000  24.611000
C  10.440000  3.976000  23.661000
H  9.543000  4.246000  24.201000
H  10.782000  4.864000  23.080000
H  10.224000  3.180000  22.948000
H  10.880000  6.139000  24.758000
H  12.035000  7.635000  26.483000
H  13.990000  6.791000  27.839000
H  14.785000  4.504000  27.644000
H  13.574000  2.910000  26.070000
16
Lattice="25.0 0.0 0.0 0.0 25.0 0.0 0.0 0.0 50.0" Properties=species:S:1:pos:R:3 pbc="F F F" Time = 0.0 Energy=288.75781513893764
C  11.686000  6.191000  24.858000
C  12.153000  7.257000  25.665000
C  12.959000  7.033000  26.819000
C  13.247000  5.708000  27.207000
C  12.778000  4.604000  26.399000
C  12.038000  4.870000  25.226000
O  11.631000  3.666000  24.584000
C  10.590000  3.690000  23.597000
H  9.626000  3.994000  23.981000
H  10.844000  4.371000  22.797000
H  10.535000  2.647000  23.348000
H  10.934000  6.319000  24.120000
H  11.669000  8.275000  25.572000
H  13.107000  7.880000  27.469000
H  14.004000  5.590000  28.020000
H  13.237000  3.591000  26.564000
16
Lattice="25.0 0.0 0.0 0.0 25.0 0.0 0.0 0.0 50.0" Properties=species:S:1:pos:R:3 pbc="F F F" Time = 0.0 Energy=285.50318729141117
C  11.619000  6.173000  24.850000
C  11.988000  7.268000  25.663000