16
Lattice="25.0 0.0 0.0 0.0 25.0 0.0 0.0 0.0 50.0" Properties=species:S:1:pos:R:3 pbc="F F F" Time = 0.0 Energy=279.80889236230934
H  5.742000  1.969000  7.081000
C  5.562000  2.887000  6.470000
C  4.716000  2.771000  5.379000
H  4.393000  1.823000  4.825000
C  4.492000  3.930000  4.529000
H  3.924000  3.742000  3.565000
C  4.998000  5.205000  4.841000
H  4.726000  6.081000  4.241000
C  5.827000  5.253000  6.010000
C  6.142000  4.136000  6.777000
H  6.764000  4.288000  7.687000
O  6.447000  6.447000  6.447000
C  6.443000  7.589000  5.602000
H  7.170000  8.323000  6.082000
H  6.680000  7.323000  4.616000
H  5.476000  7.987000  5.539000
16
Lattice="25.0 0.0 0.0 0.0 25.0 0.0 0.0 0.0 50.0" Properties=species:S:1:pos:R:3 pbc="F F F" Time = 0.0 Energy=273.6786255128354
H  4.574000  2.455000  5.357000
C  4.429000  3.539000  5.389000
C  3.270000  4.100000  4.812000
H  2.430000  3.464000  4.463000
C  3.173000  5.511000  4.859000
H  2.237000  6.106000  4.746000
C  4.244000  6.343000  5.389000
H  4.095000  7.451000  5.381000
C  5.396000  5.700000  5.925000
C  5.446000  4.331000  5.942000
H  6.406000  3.940000  6.200000
O  6.447000  6.447000  6.447000
C  6.207000  7.829000  6.659000
H  7.085000  8.102000  7.218000
H  6.133000  8.437000  5.685000
H  5.346000  7.979000  7.441000
16
Lattice="25.0 0.0 0.0 0.0 25.0 0.0 0.0 0.0 50.0" Properties=species:S:1:pos:R:3 pbc="F F F" Time = 0.0 Energy=280.4111870260659
H  5.014000  2.199000  6.966000
C  5.011000  3.134000  6.450000
C  4.137000  3.262000  5.396000
H  3.654000  2.361000  4.961000
C  3.867000  4.460000  4.801000
H  3.333000  4.369000  3.878000
C  4.500000  5.623000  5.191000
H  4.289000  6.619000  4.793000
C  5.601000  5.486000  6.079000
C  5.785000  4.273000  6.811000
H  6.506000  4.175000  7.684000
O  6.447000  6.447000  6.447000
C  6.216000  7.832000  6.188000
H  6.571000  8.316000  7.072000
H  6.738000  8.256000  5.283000
H  5.097000  8.094000  6.010000
16
Lattice="25.0 0.0 0.0 0.0 25.0 0.0 0.0 0.0 50.0" Properties=species:S:1:pos:R:3 pbc="F F F" Time = 0.0 Energy=274.25479104023094
H  6.535000  2.017000  6.467000
C  6.074000  2.898000  5.950000
C  5.266000  2.797000  4.770000
H  4.968000  1.762000  4.316000
C  4.714000  3.958000  4.210000
H  4.106000  3.908000  3.256000
C  5.109000  5.221000  4.663000
H  4.977000  6.033000  3.943000
C  5.865000  5.300000  5.832000
C  6.287000  4.116000  6.495000
H  6.977000  4.228000  7.391000
O  6.447000  6.447000  6.447000
C  6.199000  7.707000  5.832000
H  6.475000  8.436000  6.560000
H  6.873000  7.784000  4.941000
H  5.186000  7.862000  5.567000
16
Lattice="25.0 0.0 0.0 0.0 25.0 0.0 0.0 0.0 50.0" Properties=species:S:1:pos:R:3 pbc="F F F" Time = 0.0 Energy=270.2718376433816
H  6.643000  2.243000  4.708000
C  6.018000  3.208000  4.750000
C  4.950000  3.474000  3.849000
H  4.691000  2.793000  3.029000
C  4.229000  4.654000  3.904000
H  3.297000  4.850000  3.413000
C  4.712000  5.673000  4.764000
H  4.271000  6.644000  4.841000
C  5.868000  5.427000  5.612000
C  6.389000  4.145000  5.716000
H  7.133000  4.001000  6.527000
O  6.447000  6.447000  6.447000
C  7.179000  7.417000  5.646000
H  6.830000  8.393000  6.066000
H  8.248000  7.284000  5.639000
H  6.841000  7.367000  4.582000
16
Lattice="25.0 0.0 0.0 0.0 25.0 0.0 0.0 0.0 50.0" Properties=species:S:1:pos:R:3 pbc="F F F" Time = 0.0 Energy=275.33127421762316
H  6.739000  1.868000  5.815000
C  6.114000  2.798000  5.729000
C  4.950000  2.813000  4.911000
H  4.676000  1.909000  4.365000
C  4.224000  3.998000  4.842000
H  3.412000  3.921000  4.163000
C  4.673000  5.231000  5.350000
H  4.059000  6.164000  5.170000
C  5.861000  5.227000  6.082000
C  6.542000  3.994000  6.386000
H  7.376000  3.913000  7.027000
O  6.447000  6.447000  6.447000
C  7.399000  6.296000  7.492000
H  7.043000  5.827000  8.425000
H  8.204000  5.736000  7.101000
H  7.721000  7.345000  7.745000
16
Lattice="25.0 0.0 0.0 0.0 25.0 0.0 0.0 0.0 50.0" Properties=species:S:1:pos:R:3 pbc="F F F" Time = 0.0 Energy=278.1022202527496
H  6.524000  1.910000  5.803000
C  6.041000  2.921000  5.702000
C  5.011000  2.989000  4.790000
H  4.797000  2.112000  4.183000
C  4.234000  4.175000  4.682000
H  3.383000  4.151000  4.079000
C  4.735000  5.296000  5.365000
H  4.077000  6.216000  5.471000
C  5.906000  5.222000  6.152000
C  6.543000  4.014000  6.435000
H  7.399000  3.895000  7.053000
O  6.447000  6.447000  6.447000
C  7.479000  6.577000  7.435000
H  7.226000  6.133000  8.409000
H  8.431000  6.181000  7.080000
H  7.664000  7.694000  7.438000
16
Lattice="25.0 0.0 0.0 0.0 25.0 0.0 0.0 0.0 50.0" Properties=species:S:1:pos:R:3 pbc="F F F" Time = 0.0 Energy=269.07559168154893
H  6.470000  1.815000  5.588000
C  5.927000  2.806000  5.552000
C  4.645000  2.957000  5.043000
H  4.053000  2.146000  4.573000
C  4.053000  4.186000  4.967000
H  3.102000  4.185000  4.534000
C  4.670000  5.311000  5.524000
H  4.234000  6.352000  5.394000
C  5.933000  5.232000  5.989000
C  6.616000  3.952000  5.983000
H  7.606000  3.939000  6.336000
O  6.447000  6.447000  6.447000
C  7.860000  6.475000  6.875000
H  8.134000  5.939000  7.764000
H  8.494000  6.057000  6.057000
H  8.082000  7.594000  6.922000
16
Lattice="25.0 0.0 0.0 0.0 25.0 0.0 0.0 0.0 50.0" Properties=species:S:1:pos:R:3 pbc="F F F" Time = 0.0 Energy=270.83373335573714
H  7.545000  2.201000  5.090000
C  6.742000  2.939000  5.324000
C  5.396000  2.670000  5.070000
H  5.020000  1.698000  4.726000
C  4.460000  3.694000  5.215000
H  3.361000  3.525000  5.113000
C  4.864000  4.946000  5.624000
H  4.089000  5.758000  5.786000
C  6.212000  5.230000  5.912000
C  7.178000  4.203000  5.776000
H  8.233000  4.473000  5.898000
O  6.447000  6.447000  6.447000
C  7.795000  6.793000  6.843000
H  8.035000  6.216000  7.780000
H  8.556000  6.486000  6.155000
H  7.734000  7.927000  7.030000
16
Lattice="25.0 0.0 0.0 0.0 25.0 0.0 0.0 0.0 50.0" Properties=species:S:1:pos:R:3 pbc="F F F" Time = 0.0 Energy=280.2388384169534
H  7.375000  2.078000  5.124000
C  6.690000  2.888000  5.167000
C  5.360000  2.818000  4.616000
H  5.013000  1.999000  4.025000
C  4.498000  3.960000  4.672000
H  3.433000  3.934000  4.264000
C  4.981000  5.164000  5.254000
H  4.268000  5.934000  5.298000
C  6.226000  5.220000  5.819000
C  7.084000  4.098000  5.834000
H  8.119000  4.181000  6.193000
O  6.447000  6.447000  6.447000
C  7.753000  6.706000  6.947000
H  8.107000  6.004000  7.764000
H  8.457000  6.511000  6.131000
H  7.751000  7.799000  7.239000
16
Lattice="25.0 0.0 0.0 0.0 25.0 0.0 0.0 0.0 50.0" Properties=species:S:1:pos:R:3 pbc="F F F" Time = 0.0 Energy=265.2405992462968
H  6.856000  2.327000  4.263000
C  6.325000  3.229000  4.564000
C  4.958000  3.151000  4.274000
H  4.501000  2.308000  3.696000
C  4.109000  4.183000  4.782000
H  2.971000  4.130000  4.710000
C  4.686000  5.188000  5.532000
H  4.082000  5.901000  6.008000
C  6.071000  5.298000  5.745000
C  6.901000  4.276000  5.245000
H  8.046000  4.325000  5.351000
O  6.447000  6.447000  6.447000
C  7.847000  6.713000  6.332000
H  8.370000  5.923000  6.826000
H  8.132000  6.796000  5.240000
H  8.101000  7.627000  6.962000
16
Lattice="25.0 0.0 0.0 0.0 25.0 0.0 0.0 0.0 50.0" Properties=species:S:1:pos:R:3 pbc="F F F" Time = 0.0 Energy=274.83338764580105
H  7.083000  2.352000  4.340000
C  6.413000  3.122000  4.704000
C  5.013000  2.926000  4.579000
H  4.726000  2.058000  4.067000
C  4.162000  3.889000  5.019000
H  3.083000  3.712000  4.918000
C  4.697000  5.130000  5.542000
H  3.976000  5.832000  5.885000
C  6.061000  5.322000  5.794000
C  6.913000  4.276000  5.385000
H  7.963000  4.337000  5.518000
O  6.447000  6.447000  6.447000
C  7.833000  6.736000  6.529000
H  8.402000  5.854000  6.834000
H  8.280000  7.152000  5.621000
H  7.877000  7.590000  7.261000
16
Lattice="25.0 0.0 0.0 0.0 25.0 0.0 0.0 0.0 50.0" Properties=species:S:1:pos:R:3 pbc="F F F" Time = 0.0 Energy=275.08210564367056
H  7.093000  2.288000  4.738000
C  6.502000  3.107000  4.872000
C  5.155000  2.954000  4.635000
H  4.828000  2.010000  4.195000
C  4.261000  3.970000  4.964000
H  3.206000  3.793000  4.758000
C  4.734000  5.082000  5.662000
H  4.087000  5.855000  6.018000
C  6.128000  5.221000  5.886000
C  7.059000  4.282000  5.441000
H  8.101000  4.389000  5.606000
O  6.447000  6.447000  6.447000
C  7.843000  6.694000  6.732000
H  8.123000  5.995000  7.573000
H  8.495000  6.770000  5.844000
H  7.832000  7.687000  7.178000
16
Lattice="25.0 0.0 0.0 0.0 25.0 0.0 0.0 0.0 50.0" Properties=species:S:1:pos:R:3 pbc="F F F" Time = 0.0 Energy=274.17233319566077
H  6.938000  2.146000  5.050000
C  6.392000  3.108000  4.967000
C  5.367000  3.233000  4.002000
H  5.097000  2.406000  3.282000
C  4.601000  4.446000  4.033000
H  3.835000  4.590000  3.309000
C  5.032000  5.472000  4.890000
H  4.503000  6.426000  4.917000
C  6.116000  5.314000  5.779000
C  6.772000  4.101000  5.869000
H  7.478000  3.869000  6.630000
O  6.447000  6.447000  6.447000
C  7.948000  6.754000  6.666000
H  8.340000  6.486000  7.656000
H  8.550000  6.279000  5.886000
H  7.927000  7.887000  6.588000
16
Lattice="25.0 0.0 0.0 0.0 25.0 0.0 0.0 0.0 50.0" Properties=species:S:1:pos:R:3 pbc="F F F" Time = 0.0 Energy=275.4976375253076
H  7.160000  2.554000  3.835000
C  6.572000  3.354000  4.279000
C  5.204000  3.377000  3.889000
H  4.822000  2.671000  3.072000
C  4.397000  4.465000  4.229000
H  3.415000  4.630000  3.893000
C  4.859000  5.434000  5.123000
H  4.238000  6.319000  5.425000
C  6.200000  5.375000  5.560000
C  7.068000  4.361000  5.141000
H  8.055000  4.296000  5.488000
O  6.447000  6.447000  6.447000
C  7.648000  6.287000  7.216000
H  7.889000  5.244000  7.406000
H  8.498000  6.790000  6.726000
H  7.462000  6.855000  8.191000
16
Lattice="25.0 0.0 0.0 0.0 25.0 0.0 0.0 0.0 50.0" Properties=species:S:1:pos:R:3 pbc="F F F" Time = 0.0 Energy=264.4713399677402
H  7.017000  2.164000  4.931000
C  6.409000  3.022000  4.968000
C  5.293000  3.164000  4.129000
H  5.019000  2.353000  3.528000
C  4.502000  4.308000  4.284000
H  3.411000  4.341000  3.885000
C  4.913000  5.354000  5.060000
H  4.312000  6.274000  5.149000
C  6.058000  5.283000  5.749000
C  6.831000  4.087000  5.756000
H  7.697000  3.889000  6.367000
O  6.447000  6.447000  6.447000
C  7.859000  6.713000  6.336000
H  8.460000  6.159000  7.066000
H  8.255000  6.697000  5.284000
H  7.927000  7.687000  6.777000
16
Lattice="25.0 0.0 0.0 0.0 25.0 0.0 0.0 0.0 50.0" Properties=species:S:1:pos:R:3 pbc="F F F" Time = 0.0 Energy=276.91988466710245
H  7.065000  2.116000  5.221000
C  6.405000  2.971000  5.221000
C  5.079000  2.835000  4.804000
H  4.819000  1.950000  4.290000
C  4.239000  3.989000  4.817000
H  3.251000  3.936000  4.330000
C  4.774000  5.179000  5.405000
H  4.145000  6.097000  5.540000
C  6.112000  5.254000  5.828000
C  6.953000  4.149000  5.723000
H  7.937000  4.060000  6.241000
O  6.447000  6.447000  6.447000
C  7.928000  6.692000  6.412000
H  8.383000  6.152000  7.274000
H  8.405000  6.481000  5.426000
H  7.945000  7.720000  6.755000
16
Lattice="25.0 0.0 0.0 0.0 25.0 0.0 0.0 0.0 50.0" Properties=species:S:1:pos:R:3 pbc="F F F" Time = 0.0 Energy=271.39797030022834
H  6.910000  2.002000  5.282000
C  6.300000  2.917000  5.285000
C  5.016000  2.921000  4.739000
H  4.527000  1.998000  4.417000
C  4.242000  4.037000  4.875000
H  3.130000  4.062000  4.643000
C  4.674000  5.221000  5.415000
H  4.027000  6.034000  5.636000
C  6.029000  5.303000  5.897000
C  6.830000  4.154000  5.816000
H  7.879000  4.218000  6.107000
O  6.447000  6.447000  6.447000
C  7.836000  6.774000  6.521000
H  8.379000  6.226000  7.339000
H  8.245000  6.447000  5.542000
H  8.037000  7.843000  6.569000
16
Lattice="25.0 0.0 0.0 0.0 25.0 0.0 0.0 0.0 50.0" Properties=species:S:1:pos:R:3 pbc="F F F" Time = 0.0 Energy=270.43214122442674
H  7.058000  2.128000  5.178000
C  6.409000  2.986000  5.335000
C  5.087000  2.816000  5.115000
H  4.658000  1.845000  4.814000
C  4.216000  3.804000  5.463000
H  3.079000  3.663000  5.436000
C  4.672000  5.062000  5.864000
H  4.100000  5.902000  6.253000
C  6.106000  5.210000  6.042000
C  6.988000  4.186000  5.742000
H  8.042000  4.177000  5.957000
O  6.447000  6.447000  6.447000
C  7.912000  6.695000  6.585000
H  8.425000  5.831000  7.052000
H  8.319000  6.979000  5.601000
H  7.988000  7.562000  7.238000
16
Lattice="25.0 0.0 0.0 0.0 25.0 0.0 0.0 0.0 50.0" Properties=species:S:1:pos:R:3 pbc="F F F" Time = 0.0 Energy=271.8834765082789
H  7.284000  1.979000  5.594000
C  6.566000  2.758000  5.738000
C  5.187000  2.513000  5.646000
H  4.838000  1.488000  5.447000
C  4.321000  3.562000  5.985000
H  3.320000  3.241000  5.883000
C  4.710000  4.848000  6.198000
H  3.966000  5.623000  6.405000
C  6.127000  5.099000  6.206000
C  7.026000  4.072000  6.028000
H  8.104000  4.216000  6.186000
O  6.447000  6.447000  6.447000
C  7.742000  6.703000  6.859000
H  7.845000  6.335000  7.880000
H  8.502000  6.183000  6.291000
H  7.863000  7.798000  6.878000
16
Lattice="25.0 0.0 0.0 0.0 25.0 0.0 0.0 0.0 50.0" Properties=species:S:1:pos:R:3 pbc="F F F" Time = 0.0 Energy=266.4807656951399
H  7.302000  1.951000  5.910000
C  6.569000  2.793000  6.032000
C  5.190000  2.485000  5.926000
H  4.941000  1.498000  5.609000
C  4.276000  3.520000  6.146000
H  3.212000  3.366000  6.247000
C  4.722000  4.773000  6.420000
H  3.999000  5.562000  6.614000
C  6.100000  5.065000  6.410000
C  7.050000  4.094000  6.348000
H  8.128000  4.236000  6.356000
O  6.447000  6.447000  6.447000
C  7.728000  6.748000  7.059000
H  7.905000  6.512000  8.134000
H  8.546000  6.287000  6.439000
H  7.865000  7.834000  7.029000
16
Lattice="25.0 0.0 0.0 0.0 25.0 0.0 0.0 0.0 50.0" Properties=species:S:1:pos:R:3 pbc="F F F" Time = 0.0 Energy=277.5097931250056
H  7.468000  2.158000  5.106000
C  6.677000  2.955000  5.253000
C  5.475000  2.891000  4.548000
H  5.274000  2.116000  3.822000
C  4.507000  3.949000  4.763000
H  3.502000  3.794000  4.309000
C  4.874000  5.101000  5.383000
H  4.231000  5.982000  5.309000
C  6.138000  5.200000  6.014000
C  7.091000  4.155000  5.915000
H  8.103000  4.242000  6.216000
O  6.447000  6.447000  6.447000
C  7.739000  6.578000  7.024000
H  7.806000  5.879000  7.864000
H  8.637000  6.402000  6.443000
H  7.674000  7.594000  7.411000
16
Lattice="25.0 0.0 0.0 0.0 25.0 0.0 0.0 0.0 50.0" Properties=species:S:1:pos:R:3 pbc="F F F" Time = 0.0 Energy=269.79206515052357
H  6.642000  2.130000  4.590000
C  6.118000  3.081000  4.771000
C  4.773000  3.231000  4.372000
H  4.173000  2.386000  4.048000
C  4.109000  4.438000  4.615000
H  3.126000  4.607000  4.304000
C  4.711000  5.441000  5.316000
H  4.127000  6.329000  5.562000
C  5.964000  5.318000  5.819000
C  6.685000  4.130000  5.572000
H  7.707000  4.040000  5.899000
O  6.447000  6.447000  6.447000
C  7.716000  6.236000  7.117000
H  7.682000  5.500000  7.922000
H  8.400000  5.904000  6.309000
H  7.942000  7.224000  7.476000
16
Lattice="25.0 0.0 0.0 0.0 25.0 0.0 0.0 0.0 50.0" Properties=species:S:1:pos:R:3 pbc="F F F" Time = 0.0 Energy=275.4144307486463
H  6.655000  2.288000  4.678000
C  6.062000  3.162000  4.829000
C  4.727000  3.250000  4.345000
H  4.405000  2.446000  3.617000
C  4.019000  4.431000  4.534000
H  3.005000  4.415000  4.163000
C  4.627000  5.479000  5.255000
H  4.119000  6.420000  5.579000
C  5.976000  5.386000  5.683000
C  6.727000  4.248000  5.430000
H  7.763000  4.021000  5.792000
O  6.447000  6.447000  6.447000
C  7.798000  6.303000  7.014000
H  7.788000  5.530000  7.813000
H  8.573000  6.019000  6.281000
H  7.975000  7.319000  7.434000
16
Lattice="25.0 0.0 0.0 0.0 25.0 0.0 0.0 0.0 50.0" Properties=species:S:1:pos:R:3 pbc="F F F" Time = 0.0 Energy=274.17233319566077
H  7.237000  2.102000  5.074000
C  6.494000  2.866000  5.206000
C  5.138000  2.750000  4.849000
H  4.717000  1.850000  4.368000
C  4.312000  3.798000  5.155000
H  3.197000  3.579000  4.998000
C  4.697000  5.018000  5.668000
H  3.987000  5.815000  5.618000
C  6.088000  5.170000  5.932000
C  6.967000  4.095000  5.731000
H  8.029000  4.123000  5.844000
O  6.447000  6.447000  6.447000
C  7.646000  6.552000  7.200000
H  7.644000  5.703000  7.886000
H  8.537000  6.560000  6.579000
H  7.482000  7.480000  7.742000
16
Lattice="25.0 0.0 0.0 0.0 25.0 0.0 0.0 0.0 50.0" Properties=species:S:1:pos:R:3 pbc="F F F" Time = 0.0 Energy=275.16511171055157
H  6.235000  1.856000  6.058000
C  5.741000  2.852000  6.050000
C  4.351000  2.955000  5.889000
H  3.790000  2.087000  5.468000
C  3.684000  4.149000  6.093000
H  2.537000  4.264000  5.811000
C  4.500000  5.224000  6.478000
H  4.099000  6.277000  6.607000
C  5.896000  5.181000  6.399000
C  6.510000  3.952000  6.330000
H  7.551000  3.753000  6.470000
O  6.447000  6.447000  6.447000
C  7.849000  6.543000  6.295000
H  8.322000  5.626000  6.723000
H  8.105000  6.635000  5.221000
H  8.355000  7.394000  6.745000
16
Lattice="25.0 0.0 0.0 0.0 25.0 0.0 0.0 0.0 50.0" Properties=species:S:1:pos:R:3 pbc="F F F" Time = 0.0 Energy=274.3372984984259
H  7.062000  2.846000  3.621000
C  6.436000  3.574000  4.146000
C  5.072000  3.488000  3.883000
H  4.756000  2.700000  3.244000
C  4.196000  4.346000  4.543000
H  3.069000  4.204000  4.396000
C  4.701000  5.415000  5.288000
H  4.189000  6.138000  5.820000
C  6.107000  5.427000  5.554000
C  7.018000  4.503000  5.010000
H  8.107000  4.545000  5.213000
O  6.447000  6.447000  6.447000
C  7.872000  6.745000  6.439000
H  8.389000  5.944000  7.028000
H  8.258000  6.805000  5.395000
H  7.934000  7.702000  7.022000
16
Lattice="25.0 0.0 0.0 0.0 25.0 0.0 0.0 0.0 50.0" Properties=species:S:1:pos:R:3 pbc="F F F" Time = 0.0 Energy=281.3629065747505
H  7.205000  2.184000  5.194000
C  6.495000  2.958000  5.369000
C  5.122000  2.701000  5.271000
H  4.695000  1.697000  4.952000
C  4.201000  3.744000  5.540000
H  3.219000  3.632000  5.213000
C  4.666000  5.006000  5.923000
H  4.046000  5.837000  6.112000
C  6.057000  5.215000  6.034000
C  7.019000  4.210000  5.777000
H  8.050000  4.399000  5.758000
O  6.447000  6.447000  6.447000
C  7.922000  6.678000  6.734000
H  8.401000  5.720000  7.043000
H  8.427000  7.123000  5.835000
H  7.891000  7.411000  7.542000
16
Lattice="25.0 0.0 0.0 0.0 25.0 0.0 0.0 0.0 50.0" Properties=species:S:1:pos:R:3 pbc="F F F" Time = 0.0 Energy=279.9807123760412
H  7.248000  2.197000  4.838000
C  6.526000  2.938000  5.104000
C  5.152000  2.831000  4.766000
H  4.764000  1.917000  4.261000
C  4.312000  3.938000  5.016000
H  3.318000  3.895000  4.790000
C  4.736000  5.094000  5.671000
H  4.147000  5.912000  5.947000
C  6.112000  5.149000  6.000000
C  7.052000  4.151000  5.641000
H  8.101000  4.268000  5.841000
O  6.447000  6.447000  6.447000
C  7.799000  6.723000  6.809000
H  8.133000  6.063000  7.620000
H  8.561000  6.608000  6.045000
H  7.786000  7.691000  7.284000
16
Lattice="25.0 0.0 0.0 0.0 25.0 0.0 0.0 0.0 50.0" Properties=species:S:1:pos:R:3 pbc="F F F" Time = 0.0 Energy=273.0231078469364
H  6.901000  2.034000  5.370000
C  6.257000  2.957000  5.282000
C  4.904000  2.889000  4.851000
H  4.432000  1.958000  4.529000
C  4.133000  4.072000  4.936000
H  3.023000  3.984000  4.752000
C  4.630000  5.274000  5.412000
H  3.953000  6.202000  5.670000
C  5.965000  5.312000  5.856000
C  6.807000  4.184000  5.644000
H  7.895000  4.216000  6.000000
O  6.447000  6.447000  6.447000
C  7.876000  6.478000  6.771000
H  8.174000  5.579000  7.301000
H  8.410000  6.724000  5.870000
H  7.854000  7.397000  7.373000
16
Lattice="25.0 0.0 0.0 0.0 25.0 0.0 0.0 0.0 50.0" Properties=species:S:1:pos:R:3 pbc="F F F" Time = 0.0 Energy=263.7828117468233
H  6.836000  2.710000  3.952000
C  6.186000  3.499000  4.338000
C  4.833000  3.626000  3.963000
H  4.324000  2.863000  3.351000
C  4.104000  4.696000  4.412000
H  2.990000  4.744000  4.330000
C  4.697000  5.601000  5.216000
H  4.111000  6.482000  5.651000
C  6.055000  5.521000  5.506000
C  6.816000  4.460000  5.066000
H  7.944000  4.443000  5.067000
O  6.447000  6.447000  6.447000
C  7.835000  6.740000  6.556000
H  8.556000  5.934000  6.827000
H  8.327000  7.117000  5.631000
H  8.004000  7.429000  7.414000
16
Lattice="25.0 0.0 0.0 0.0 25.0 0.0 0.0 0.0 50.0" Properties=species:S:1:pos:R:3 pbc="F F F" Time = 0.0 Energy=270.1917570988947
H  7.212000  2.760000  3.742000
C  6.595000  3.468000  4.189000
C  5.248000  3.353000  3.822000
H  4.947000  2.607000  3.159000
C  4.320000  4.227000  4.450000
H  3.288000  3.957000  4.460000
C  4.736000  5.248000  5.300000
H  3.977000  5.973000  5.774000
C  6.093000  5.416000  5.583000
C  7.022000  4.499000  5.080000
H  8.069000  4.633000  5.269000
O  6.447000  6.447000  6.447000
C  7.827000  6.667000  6.601000
H  8.392000  5.722000  6.958000
H  8.367000  6.924000  5.622000
H  8.018000  7.498000  7.374000
16
Lattice="25.0 0.0 0.0 0.0 25.0 0.0 0.0 0.0 50.0" Properties=species:S:1:pos:R:3 pbc="F F F" Time = 0.0 Energy=271.7214482147697
H  6.745000  2.913000  3.328000
C  6.210000  3.643000  3.984000
C  4.811000  3.550000  3.942000
H  4.418000  2.731000  3.245000
C  3.997000  4.439000  4.597000
H  2.989000  4.638000  4.220000
C  4.630000  5.479000  5.329000
H  4.054000  6.335000  5.578000
C  6.017000  5.492000  5.531000
C  6.819000  4.597000  4.798000
H  7.933000  4.683000  4.915000
O  6.447000  6.447000  6.447000
C  7.607000  7.188000  5.956000
H  8.614000  6.700000  6.033000
H  7.562000  7.541000  4.903000
H  7.652000  8.152000  6.541000
16
Lattice="25.0 0.0 0.0 0.0 25.0 0.0 0.0 0.0 50.0" Properties=species:S:1:pos:R:3 pbc="F F F" Time = 0.0 Energy=266.4807656951399
H  6.556000  2.723000  3.846000
C  5.979000  3.639000  4.064000
C  4.726000  3.925000  3.580000
H  4.262000  3.282000  2.856000
C  4.090000  5.055000  4.056000
H  3.115000  5.290000  3.696000
C  4.668000  5.876000  5.016000
H  4.100000  6.742000  5.365000
C  5.928000  5.559000  5.516000
C  6.583000  4.431000  5.037000
H  7.588000  4.179000  5.327000
O  6.447000  6.447000  6.447000
C  7.877000  6.489000  6.668000
H  8.338000  5.508000  6.713000
H  8.329000  7.135000  5.857000
H  8.024000  6.994000  7.629000
16
Lattice="25.0 0.0 0.0 0.0 25.0 0.0 0.0 0.0 50.0" Properties=species:S:1:pos:R:3 pbc="F F F" Time = 0.0 Energy=264.9323591542035
H  6.273000  3.396000  2.948000
C  5.820000  4.020000  3.732000
C  4.417000  3.999000  3.806000
H  3.792000  3.332000  3.109000
C  3.743000  4.876000  4.648000
H  2.608000  4.933000  4.663000
C  4.469000  5.691000  5.488000
H  3.916000  6.304000  6.162000
C  5.841000  5.641000  5.524000
C  6.511000  4.830000  4.555000
H  7.617000  4.743000  4.659000
O  6.447000  6.447000  6.447000
C  7.846000  6.866000  6.205000
H  8.408000  5.958000  5.982000
H  8.032000  7.581000  5.343000
H  8.105000  7.300000  7.152000
16
Lattice="25.0 0.0 0.0 0.0 25.0 0.0 0.0 0.0 50.0" Properties=species:S:1:pos:R:3 pbc="F F F" Time = 0.0 Energy=273.1048757738148
H  6.439000  3.588000  2.871000
C  5.831000  4.024000  3.620000
C  4.418000  4.136000  3.557000
H  3.796000  3.803000  2.760000
C  3.755000  4.808000  4.607000
H  2.645000  4.872000  4.527000
C  4.476000  5.536000  5.567000
H  4.027000  6.123000  6.352000
C  5.899000  5.545000  5.531000
C  6.551000  4.662000  4.624000
H  7.621000  4.615000  4.541000
O  6.447000  6.447000  6.447000
C  7.893000  6.744000  6.219000
H  8.553000  5.829000  6.275000
H  8.000000  7.133000  5.192000
H  8.169000  7.495000  7.002000
16
Lattice="25.0 0.0 0.0 0.0 25.0 0.0 0.0 0.0 50.0" Properties=species:S:1:pos:R:3 pbc="F F F" Time = 0.0 Energy=276.667833801204
H  6.199000  4.585000  2.186000
C  5.623000  4.870000  3.086000
C  4.230000  4.694000  3.241000
H  3.659000  4.306000  2.450000
C  3.672000  5.043000  4.477000
H  2.562000  5.056000  4.654000
C  4.501000  5.585000  5.518000
H  4.117000  5.909000  6.521000
C  5.870000  5.834000  5.289000
C  6.439000  5.450000  4.097000
H  7.507000  5.734000  3.952000
O  6.447000  6.447000  6.447000
C  7.626000  7.308000  6.220000
H  8.469000  6.659000  5.963000
H  7.372000  8.085000  5.438000
H  7.787000  7.883000  7.130000
16
Lattice="25.0 0.0 0.0 0.0 25.0 0.0 0.0 0.0 50.0" Properties=species:S:1:pos:R:3 pbc="F F F" Time = 0.0 Energy=276.5839187773031
H  6.112000  4.588000  2.198000
C  5.620000  4.705000  3.171000
C  4.290000  4.399000  3.410000
H  3.815000  3.857000  2.543000
C  3.703000  4.658000  4.604000
H  2.768000  4.224000  4.885000
C  4.418000  5.300000  5.633000
H  4.064000  5.333000  6.621000
C  5.751000  5.740000  5.381000
C  6.340000  5.463000  4.120000
H  7.248000  5.902000  3.833000
O  6.447000  6.447000  6.447000
C  7.907000  6.210000  6.260000
H  8.015000  5.180000  5.933000
H  8.314000  6.936000  5.495000
H  8.357000  6.442000  7.223000
16
Lattice="25.0 0.0 0.0 0.0 25.0 0.0 0.0 0.0 50.0" Properties=species:S:1:pos:R:3 pbc="F F F" Time = 0.0 Energy=268.9168918339043
H  5.559000  5.027000  2.168000
C  5.277000  5.042000  3.240000
C  4.181000  4.312000  3.688000
H  3.574000  3.793000  2.921000
C  3.889000  4.366000  5.063000
H  2.946000  3.965000  5.452000
C  4.670000  4.995000  5.993000
H  4.234000  5.059000  7.009000
C  5.719000  5.790000  5.542000
C  5.992000  5.803000  4.156000
H  6.854000  6.376000  3.717000
O  6.447000  6.447000  6.447000
C  7.554000  7.325000  6.184000
H  8.479000  6.777000  5.984000
H  7.412000  7.924000  5.227000
H  7.610000  8.040000  7.017000
16
Lattice="25.0 0.0 0.0 0.0 25.0 0.0 0.0 0.0 50.0" Properties=species:S:1:pos:R:3 pbc="F F F" Time = 0.0 Energy=277.17239520023355
H  6.157000  3.839000  2.605000
C  5.740000  4.315000  3.441000
C  4.362000  4.119000  3.605000
H  3.811000  3.543000  2.893000
C  3.738000  4.777000  4.679000
H  2.673000  4.597000  4.783000
C  4.418000  5.463000  5.699000
H  3.802000  5.683000  6.612000
C  5.849000  5.641000  5.509000
C  6.447000  5.117000  4.362000
H  7.509000  5.194000  4.050000
O  6.447000  6.447000  6.447000
C  7.684000  7.139000  6.028000
H  8.479000  6.442000  6.210000
H  7.628000  7.349000  4.915000
H  7.634000  8.082000  6.610000
16
Lattice="25.0 0.0 0.0 0.0 25.0 0.0 0.0 0.0 50.0" Properties=species:S:1:pos:R:3 pbc="F F F" Time = 0.0 Energy=267.10520802834475
H  7.248000  3.644000  2.834000
C  6.490000  4.051000  3.571000
C  5.133000  3.755000  3.443000
H  4.588000  3.213000  2.608000
C  4.312000  4.260000  4.428000
H  3.236000  4.056000  4.412000
C  4.761000  5.123000  5.453000
H  4.024000  5.508000  6.158000
C  6.155000  5.504000  5.513000
C  6.977000  4.925000  4.553000
H  8.082000  5.024000  4.595000
O  6.447000  6.447000  6.447000
C  7.708000  7.111000  6.280000
H  8.601000  6.424000  6.460000
H  7.952000  7.441000  5.268000
H  7.621000  8.020000  6.916000
16
Lattice="25.0 0.0 0.0 0.0 25.0 0.0 0.0 0.0 50.0" Properties=species:S:1:pos:R:3 pbc="F F F" Time = 0.0 Energy=270.99470437110466
H  7.160000  3.594000  2.875000
C  6.485000  4.018000  3.569000
C  5.111000  3.750000  3.468000
H  4.614000  3.195000  2.731000
C  4.292000  4.264000  4.464000
H  3.211000  4.127000  4.478000
C  4.745000  5.133000  5.474000
H  3.952000  5.453000  6.170000
C  6.126000  5.495000  5.530000
C  6.995000  4.886000  4.572000
H  8.041000  5.151000  4.570000
O  6.447000  6.447000  6.447000
C  7.731000  7.069000  6.301000
H  8.489000  6.404000  6.689000
H  7.928000  7.396000  5.252000
H  7.647000  7.928000  6.958000
16
Lattice="25.0 0.0 0.0 0.0 25.0 0.0 0.0 0.0 50.0" Properties=species:S:1:pos:R:3 pbc="F F F" Time = 0.0 Energy=273.6786255128354
H  6.833000  3.353000  2.917000
C  6.197000  3.657000  3.768000
C  4.966000  3.109000  4.139000
H  4.581000  2.202000  3.668000
C  4.213000  3.698000  5.149000
H  3.312000  3.192000  5.420000
C  4.731000  4.769000  5.893000
H  4.242000  5.224000  6.797000
C  6.014000  5.344000  5.588000
C  6.732000  4.754000  4.478000
H  7.759000  5.145000  4.186000
O  6.447000  6.447000  6.447000
C  7.486000  7.333000  5.976000
H  8.398000  6.791000  5.859000
H  7.234000  7.702000  4.958000
H  7.503000  8.201000  6.655000
16
Lattice="25.0 0.0 0.0 0.0 25.0 0.0 0.0 0.0 50.0" Properties=species:S:1:pos:R:3 pbc="F F F" Time = 0.0 Energy=271.8834765082789
H  6.381000  4.929000  2.051000
C  5.869000  4.962000  3.055000
C  4.572000  4.383000  3.223000
H  4.026000  3.942000  2.431000
C  4.022000  4.431000  4.534000
H  3.021000  3.933000  4.588000
C  4.655000  5.162000  5.564000
H  4.319000  5.128000  6.653000
C  5.875000  5.832000  5.364000
C  6.482000  5.678000  4.091000
H  7.471000  6.147000  3.821000
O  6.447000  6.447000  6.447000
C  7.739000  7.243000  6.201000
H  8.588000  6.525000  6.062000
H  7.599000  7.880000  5.309000
H  7.804000  8.020000  6.970000
16
Lattice="25.0 0.0 0.0 0.0 25.0 0.0 0.0 0.0 50.0" Properties=species:S:1:pos:R:3 pbc="F F F" Time = 0.0 Energy=274.83338764580105
H  7.245000  8.616000  2.403000
C  6.742000  7.836000  2.965000
C  5.700000  7.173000  2.326000
H  5.538000  7.394000  1.254000
C  4.968000  6.254000  3.093000
H  4.229000  5.588000  2.664000
C  5.083000  6.129000  4.470000
H  4.336000  5.415000  4.994000
C  6.173000  6.779000  5.090000
C  7.079000  7.542000  4.334000
H  7.937000  8.062000  4.812000
O  6.447000  6.447000  6.447000
C  7.580000  7.213000  7.070000
H  8.542000  7.052000  6.578000
H  7.437000  8.316000  7.071000
H  7.611000  6.817000  8.129000
16
Lattice="25.0 0.0 0.0 0.0 25.0 0.0 0.0 0.0 50.0" Properties=species:S:1:pos:R:3 pbc="F F F" Time = 0.0 Energy=264.9323591542035
H  6.961000  7.883000  2.204000
C  6.490000  7.109000  2.839000
C  5.825000  5.956000  2.307000