20
Lattice="25.0 0.0 0.0 0.0 25.0 0.0 0.0 0.0 50.0" Properties=species:S:1:pos:R:3 pbc="F F F" Time = 0.0 Energy= 284.66
H  7.265000  5.258000  9.341000
C  7.035000  4.736000  8.415000
C  5.808000  4.785000  7.786000
H  4.887000  5.239000  8.214000
C  5.796000  4.355000  6.417000
O  4.562000  4.499000  5.796000
C  6.854000  3.742000  5.754000
H  6.935000  3.482000  4.658000
C  8.077000  3.727000  6.483000
C  8.191000  4.257000  7.838000
H  9.025000  4.446000  8.501000
O  9.262000  3.072000  5.975000
C  9.372000  3.038000  4.562000
H  9.073000  3.991000  4.076000
H  10.492000  2.852000  4.379000
H  8.866000  2.146000  4.096000
C  4.552000  4.276000  4.350000
H  4.901000  3.235000  4.207000
H  3.516000  4.337000  4.066000
H  5.239000  5.011000  3.934000
20
Lattice="25.0 0.0 0.0 0.0 25.0 0.0 0.0 0.0 50.0" Properties=species:S:1:pos:R:3 pbc="F F F" Time = 0.0 Energy= 283.421
H  7.251000  5.254000  9.356000
C  7.030000  4.738000  8.413000
C  5.809000  4.779000  7.789000
H  4.897000  5.215000  8.201000
C  5.785000  4.349000  6.410000
O  4.555000  4.502000  5.803000
C  6.850000  3.737000  5.752000
H  6.946000  3.485000  4.638000
C  8.064000  3.726000  6.481000
C  8.198000  4.254000  7.835000
H  9.023000  4.454000  8.515000
O  9.266000  3.075000  5.970000
C  9.375000  3.030000  4.565000
H  9.092000  4.033000  4.057000
H  10.471000  2.888000  4.356000
H  8.867000  2.136000  4.106000
C  4.563000  4.264000  4.347000
H  4.877000  3.219000  4.229000
H  3.520000  4.352000  4.048000
H  5.223000  4.990000  3.896000
20
Lattice="25.0 0.0 0.0 0.0 25.0 0.0 0.0 0.0 50.0" Properties=species:S:1:pos:R:3 pbc="F F F" Time = 0.0 Energy= 277.638
H  7.076000  4.769000  9.350000
C  6.861000  4.653000  8.302000
C  5.644000  4.698000  7.566000
H  4.815000  5.006000  8.163000
C  5.617000  4.364000  6.234000
O  4.392000  4.449000  5.603000
C  6.790000  4.080000  5.536000
H  6.809000  3.877000  4.495000
C  8.007000  3.966000  6.259000
C  8.038000  4.335000  7.622000
H  8.919000  4.411000  8.297000
O  9.212000  3.607000  5.734000
C  9.335000  3.283000  4.366000
H  8.899000  4.111000  3.812000
H  10.324000  3.006000  4.243000
H  8.722000  2.439000  4.064000
C  4.375000  3.995000  4.157000
H  4.558000  2.893000  4.121000
H  3.274000  4.171000  3.945000
H  5.085000  4.472000  3.456000
20
Lattice="25.0 0.0 0.0 0.0 25.0 0.0 0.0 0.0 50.0" Properties=species:S:1:pos:R:3 pbc="F F F" Time = 0.0 Energy= 276.46
H  6.895000  4.135000  9.336000
C  6.798000  4.101000  8.214000
C  5.577000  3.994000  7.639000
H  4.655000  3.732000  8.235000
C  5.428000  4.138000  6.270000
O  4.143000  4.405000  5.788000
C  6.561000  4.176000  5.432000
H  6.449000  4.190000  4.352000
C  7.834000  4.242000  6.062000
C  7.986000  4.233000  7.456000
H  8.947000  4.348000  8.017000
O  9.040000  4.372000  5.323000
C  8.846000  4.607000  3.939000
H  8.189000  5.496000  3.867000
H  9.805000  4.530000  3.426000
H  8.336000  3.785000  3.613000
C  3.964000  4.901000  4.411000
H  3.906000  4.152000  3.618000
H  2.954000  5.393000  4.469000
H  4.681000  5.697000  4.166000
20
Lattice="25.0 0.0 0.0 0.0 25.0 0.0 0.0 0.0 50.0" Properties=species:S:1:pos:R:3 pbc="F F F" Time = 0.0 Energy= 282.543
H  7.691000  3.984000  9.150000
C  7.461000  4.206000  8.088000
C  6.119000  4.521000  7.729000
H  5.313000  4.493000  8.486000
C  5.862000  4.852000  6.356000
O  4.624000  5.073000  5.947000
C  6.913000  4.622000  5.408000
H  6.683000  4.694000  4.330000
C  8.220000  4.285000  5.856000
C  8.559000  4.189000  7.218000
H  9.524000  3.870000  7.512000
O  9.330000  4.045000  5.013000
C  9.295000  4.490000  3.596000
H  8.774000  5.390000  3.334000
H  10.412000  4.738000  3.404000
H  8.874000  3.668000  2.883000
C  4.188000  5.305000  4.601000
H  4.501000  4.441000  3.983000
H  3.123000  5.367000  4.768000
H  4.606000  6.290000  4.269000
20
Lattice="25.0 0.0 0.0 0.0 25.0 0.0 0.0 0.0 50.0" Properties=species:S:1:pos:R:3 pbc="F F F" Time = 0.0 Energy= 287.623
H  7.629000  4.126000  9.204000
C  7.496000  4.288000  8.133000
C  6.205000  4.606000  7.699000
H  5.455000  4.642000  8.471000
C  5.927000  4.721000  6.308000
O  4.612000  5.104000  6.105000
C  6.941000  4.691000  5.336000
H  6.761000  4.863000  4.283000
C  8.270000  4.344000  5.801000
C  8.495000  4.081000  7.192000
H  9.508000  3.983000  7.447000
O  9.306000  3.922000  4.981000
C  9.289000  4.471000  3.598000
H  8.501000  5.082000  3.280000
H  10.300000  4.959000  3.485000
H  9.343000  3.579000  2.915000
C  4.320000  5.333000  4.688000
H  4.575000  4.404000  4.151000
H  3.297000  5.637000  4.632000
H  4.979000  6.189000  4.392000
20
Lattice="25.0 0.0 0.0 0.0 25.0 0.0 0.0 0.0 50.0" Properties=species:S:1:pos:R:3 pbc="F F F" Time = 0.0 Energy= 279.169
H  7.710000  3.165000  9.467000
C  7.540000  3.520000  8.470000
C  6.313000  4.126000  8.135000
H  5.378000  4.202000  8.760000
C  6.117000  4.377000  6.800000
O  4.859000  4.888000  6.477000
C  7.092000  4.276000  5.815000
H  6.753000  4.439000  4.816000
C  8.348000  3.802000  6.209000
C  8.565000  3.303000  7.490000
H  9.522000  2.990000  7.787000
O  9.402000  3.791000  5.316000
C  9.283000  4.159000  3.943000
H  8.822000  3.401000  3.163000
H  8.806000  5.155000  3.885000
H  10.286000  4.346000  3.672000
C  4.411000  4.855000  5.124000
H  4.686000  3.900000  4.606000
H  3.296000  4.963000  5.058000
H  4.829000  5.688000  4.530000
20
Lattice="25.0 0.0 0.0 0.0 25.0 0.0 0.0 0.0 50.0" Properties=species:S:1:pos:R:3 pbc="F F F" Time = 0.0 Energy= 281.496
H  8.280000  4.125000  9.808000
C  7.871000  4.219000  8.795000
C  6.478000  4.390000  8.519000
H  5.741000  4.431000  9.291000
C  6.027000  4.332000  7.190000
O  4.700000  4.493000  6.901000
C  6.951000  4.227000  6.106000
H  6.653000  4.316000  5.027000
C  8.340000  4.214000  6.490000
C  8.844000  4.120000  7.801000
H  9.918000  4.040000  8.079000
O  9.296000  4.318000  5.516000
C  8.899000  4.003000  4.159000
H  8.085000  3.171000  4.095000
H  8.405000  4.852000  3.630000
H  9.758000  3.602000  3.640000
C  4.306000  4.470000  5.586000
H  4.767000  3.597000  5.059000
H  3.223000  4.399000  5.613000
H  4.563000  5.421000  5.030000
20
Lattice="25.0 0.0 0.0 0.0 25.0 0.0 0.0 0.0 50.0" Properties=species:S:1:pos:R:3 pbc="F F F" Time = 0.0 Energy= 273.311
H  8.037000  2.855000  9.366000
C  7.718000  3.374000  8.478000
C  6.428000  3.791000  8.383000
H  5.780000  3.632000  9.205000
C  5.929000  4.272000  7.192000
O  4.564000  4.490000  7.278000
C  6.776000  4.432000  6.116000
H  6.422000  4.879000  5.166000
C  8.158000  4.210000  6.190000
C  8.592000  3.502000  7.413000
H  9.588000  3.196000  7.501000
O  9.062000  4.576000  5.211000
C  8.636000  5.099000  3.971000
H  7.797000  4.482000  3.628000
H  8.272000  6.195000  3.988000
H  9.480000  5.009000  3.348000
C  3.893000  4.924000  5.974000
H  4.242000  4.314000  5.132000
H  2.797000  4.666000  5.956000
H  4.068000  6.001000  5.772000
20
Lattice="25.0 0.0 0.0 0.0 25.0 0.0 0.0 0.0 50.0" Properties=species:S:1:pos:R:3 pbc="F F F" Time = 0.0 Energy= 273.557
H  7.997000  2.889000  9.387000
C  7.741000  3.361000  8.439000
C  6.420000  3.743000  8.393000
H  5.721000  3.659000  9.245000
C  5.880000  4.247000  7.210000
O  4.563000  4.483000  7.252000
C  6.771000  4.450000  6.095000
H  6.413000  4.887000  5.147000
C  8.163000  4.148000  6.202000
C  8.591000  3.524000  7.405000
H  9.682000  3.181000  7.592000
O  9.066000  4.602000  5.221000
C  8.671000  5.118000  3.933000
H  7.836000  4.550000  3.509000
H  8.349000  6.102000  4.097000
H  9.610000  4.851000  3.348000
C  3.884000  4.922000  5.997000
H  4.303000  4.311000  5.151000
H  2.825000  4.697000  6.069000
H  4.039000  6.016000  5.867000
20
Lattice="25.0 0.0 0.0 0.0 25.0 0.0 0.0 0.0 50.0" Properties=species:S:1:pos:R:3 pbc="F F F" Time = 0.0 Energy= 279.083
H  8.184000  3.090000  9.535000
C  7.838000  3.508000  8.658000
C  6.515000  3.973000  8.506000
H  5.805000  3.917000  9.333000
C  6.071000  4.479000  7.272000
O  4.786000  4.890000  7.138000
C  6.987000  4.682000  6.225000
H  6.692000  5.064000  5.196000
C  8.295000  4.312000  6.444000
C  8.739000  3.631000  7.620000
H  9.806000  3.374000  7.609000
O  9.196000  4.598000  5.440000
C  8.793000  5.036000  4.108000
H  8.300000  4.261000  3.455000
H  8.195000  5.923000  4.023000
H  9.793000  5.074000  3.658000
C  4.120000  4.933000  5.832000
H  4.352000  3.949000  5.304000
H  3.010000  4.988000  6.060000
H  4.484000  5.798000  5.215000
20
Lattice="25.0 0.0 0.0 0.0 25.0 0.0 0.0 0.0 50.0" Properties=species:S:1:pos:R:3 pbc="F F F" Time = 0.0 Energy= 277.554
H  8.541000  3.687000  8.873000
C  8.169000  3.846000  7.790000
C  6.808000  3.861000  7.571000
H  6.080000  3.836000  8.392000
C  6.364000  4.138000  6.259000
O  5.017000  4.205000  6.048000
C  7.241000  4.481000  5.231000
H  6.742000  4.848000  4.323000
C  8.643000  4.377000  5.514000
C  9.157000  4.011000  6.750000
H  10.222000  3.843000  6.907000
O  9.652000  4.575000  4.516000
C  9.231000  4.961000  3.164000
H  8.771000  4.114000  2.470000
H  8.391000  5.753000  3.192000
H  9.964000  5.571000  2.678000
C  4.527000  4.447000  4.714000
H  5.012000  3.838000  3.914000
H  3.471000  4.232000  4.845000
H  4.596000  5.520000  4.400000
20
Lattice="25.0 0.0 0.0 0.0 25.0 0.0 0.0 0.0 50.0" Properties=species:S:1:pos:R:3 pbc="F F F" Time = 0.0 Energy= 279.34
H  8.448000  3.741000  8.783000
C  8.202000  3.860000  7.776000
C  6.809000  3.916000  7.553000
H  6.134000  3.725000  8.384000
C  6.394000  4.154000  6.260000
O  5.043000  4.228000  6.007000
C  7.205000  4.469000  5.204000
H  6.781000  4.830000  4.255000
C  8.630000  4.378000  5.453000
C  9.146000  3.955000  6.778000
H  10.253000  4.007000  6.853000
O  9.670000  4.580000  4.546000
C  9.208000  4.917000  3.193000
H  8.754000  4.199000  2.593000
H  8.469000  5.682000  3.160000
H  10.166000  5.365000  2.750000
C  4.511000  4.427000  4.721000
H  5.079000  3.829000  3.997000
H  3.426000  4.196000  4.734000
H  4.686000  5.487000  4.466000
20
Lattice="25.0 0.0 0.0 0.0 25.0 0.0 0.0 0.0 50.0" Properties=species:S:1:pos:R:3 pbc="F F F" Time = 0.0 Energy= 280.1979999999999
H  7.764000  4.177000  8.970000
C  7.789000  4.181000  7.854000
C  6.464000  4.138000  7.449000
H  5.666000  4.376000  8.163000
C  6.152000  4.223000  6.083000
O  4.832000  4.382000  5.700000
C  7.181000  4.233000  5.146000
H  6.981000  4.336000  4.071000
C  8.529000  4.190000  5.585000
C  8.879000  4.224000  6.901000
H  9.877000  4.054000  7.290000
O  9.571000  4.341000  4.716000
C  9.340000  4.029000  3.321000
H  9.151000  2.887000  3.280000
H  8.350000  4.502000  2.849000
H  10.261000  4.290000  2.843000
C  4.591000  4.860000  4.268000
H  5.129000  4.230000  3.519000
H  3.521000  4.686000  4.159000
H  4.858000  5.900000  4.150000
20
Lattice="25.0 0.0 0.0 0.0 25.0 0.0 0.0 0.0 50.0" Properties=species:S:1:pos:R:3 pbc="F F F" Time = 0.0 Energy= 281.844
H  7.548000  3.996000  9.018000
C  7.358000  4.055000  7.929000
C  6.069000  4.090000  7.410000
H  5.268000  3.833000  8.103000
C  5.934000  4.338000  6.020000
O  4.628000  4.447000  5.564000
C  7.040000  4.492000  5.171000
H  6.803000  4.604000  4.033000
C  8.357000  4.254000  5.714000
C  8.537000  4.075000  7.102000
H  9.596000  4.070000  7.440000
O  9.558000  4.237000  5.014000
C  9.429000  3.918000  3.633000
H  8.880000  2.949000  3.518000
H  9.156000  4.746000  2.927000
H  10.526000  3.653000  3.211000
C  4.368000  5.053000  4.293000
H  4.495000  4.336000  3.483000
H  3.313000  5.352000  4.345000
H  4.966000  5.998000  4.072000
20
Lattice="25.0 0.0 0.0 0.0 25.0 0.0 0.0 0.0 50.0" Properties=species:S:1:pos:R:3 pbc="F F F" Time = 0.0 Energy= 284.66
H  6.947000  4.771000  9.351000
C  7.042000  4.570000  8.236000
C  5.842000  4.577000  7.524000
H  4.887000  4.677000  7.980000
C  5.929000  4.499000  6.093000
O  4.640000  4.508000  5.526000
C  7.116000  4.290000  5.421000
H  7.025000  4.211000  4.337000
C  8.320000  4.287000  6.141000
C  8.351000  4.392000  7.615000
H  9.352000  4.447000  8.093000
O  9.578000  4.449000  5.561000
C  9.710000  4.146000  4.118000
H  9.798000  3.018000  4.003000
H  9.058000  4.719000  3.507000
H  10.739000  4.652000  3.808000
C  4.442000  4.500000  4.110000
H  4.760000  3.530000  3.663000
H  3.399000  4.765000  3.870000
H  5.047000  5.215000  3.545000
20
Lattice="25.0 0.0 0.0 0.0 25.0 0.0 0.0 0.0 50.0" Properties=species:S:1:pos:R:3 pbc="F F F" Time = 0.0 Energy= 277.638
H  8.673000  3.195000  9.211000
C  8.208000  3.546000  8.269000
C  6.862000  3.821000  8.138000
H  6.119000  3.912000  8.986000
C  6.303000  4.268000  6.890000
O  4.998000  4.604000  7.019000
C  7.198000  4.356000  5.749000
H  6.830000  4.755000  4.810000
C  8.526000  4.066000  5.966000
C  9.068000  3.683000  7.160000
H  10.102000  3.421000  7.249000
O  9.523000  4.385000  4.971000
C  8.967000  4.478000  3.562000
H  8.325000  3.697000  3.272000
H  8.516000  5.519000  3.386000
H  9.870000  4.356000  2.896000
C  4.399000  5.042000  5.703000
H  4.330000  4.205000  5.024000
H  3.432000  5.418000  6.073000
H  4.961000  5.896000  5.187000
20
Lattice="25.0 0.0 0.0 0.0 25.0 0.0 0.0 0.0 50.0" Properties=species:S:1:pos:R:3 pbc="F F F" Time = 0.0 Energy= 286.718
H  8.242000  3.569000  9.879000
C  7.940000  3.799000  8.841000
C  6.547000  4.038000  8.440000
H  5.719000  4.111000  9.088000
C  6.287000  4.306000  7.062000
O  4.982000  4.471000  6.762000
C  7.277000  4.045000  6.093000
H  7.071000  4.135000  4.973000
C  8.606000  3.849000  6.519000
C  8.935000  3.796000  7.889000
H  9.990000  3.659000  8.139000
O  9.665000  3.877000  5.555000
C  9.447000  4.240000  4.222000
H  8.970000  3.493000  3.583000
H  9.074000  5.289000  4.155000
H  10.539000  4.290000  3.878000
C  4.667000  5.290000  5.644000
H  4.621000  4.811000  4.645000
H  3.654000  5.638000  5.923000
H  5.356000  6.155000  5.550000
20
Lattice="25.0 0.0 0.0 0.0 25.0 0.0 0.0 0.0 50.0" Properties=species:S:1:pos:R:3 pbc="F F F" Time = 0.0 Energy= 273.968
H  7.980000  3.483000  10.014000
C  7.728000  3.712000  8.942000
C  6.504000  4.087000  8.504000
H  5.712000  3.991000  9.173000
C  6.351000  4.399000  7.127000
O  5.072000  4.659000  6.797000
C  7.329000  4.376000  6.206000
H  7.192000  4.655000  5.115000
C  8.632000  3.946000  6.663000
C  8.802000  3.586000  8.024000
H  9.848000  3.410000  8.360000
O  9.733000  3.858000  5.873000
C  9.517000  4.092000  4.381000
H  8.937000  3.306000  3.920000
H  9.070000  5.058000  4.111000
H  10.466000  3.851000  3.916000
C  4.850000  5.353000  5.508000
H  5.398000  4.825000  4.697000
H  3.800000  5.588000  5.274000
H  5.284000  6.388000  5.469000
20
Lattice="25.0 0.0 0.0 0.0 25.0 0.0 0.0 0.0 50.0" Properties=species:S:1:pos:R:3 pbc="F F F" Time = 0.0 Energy= 279.511
H  7.708000  3.901000  9.619000
C  7.500000  3.996000  8.587000
C  6.162000  4.294000  8.218000
H  5.382000  4.587000  9.007000
C  5.915000  4.440000  6.821000
O  4.600000  4.799000  6.477000
C  6.897000  4.209000  5.842000
H  6.599000  4.488000  4.798000
C  8.163000  3.779000  6.283000
C  8.456000  3.756000  7.600000
H  9.411000  3.374000  7.981000
O  9.234000  3.547000  5.370000
C  9.043000  3.780000  3.962000
H  8.169000  3.266000  3.658000
H  8.873000  4.799000  3.749000
H  9.987000  3.506000  3.417000
C  4.154000  4.841000  5.159000
H  4.194000  3.806000  4.677000
H  3.081000  4.990000  5.081000
H  4.707000  5.593000  4.596000
20
Lattice="25.0 0.0 0.0 0.0 25.0 0.0 0.0 0.0 50.0" Properties=species:S:1:pos:R:3 pbc="F F F" Time = 0.0 Energy= 275.708
H  7.862000  4.555000  9.411000
C  7.543000  4.289000  8.416000
C  6.265000  4.539000  7.986000
H  5.643000  5.062000  8.740000
C  5.918000  4.508000  6.675000
O  4.606000  4.684000  6.297000
C  6.914000  4.227000  5.742000
H  6.727000  4.371000  4.610000
C  8.223000  3.959000  6.172000
C  8.607000  3.976000  7.549000
H  9.607000  3.874000  7.855000
O  9.186000  3.597000  5.222000
C  9.051000  4.006000  3.852000
H  8.151000  3.579000  3.337000
H  9.020000  5.083000  3.668000
H  9.838000  3.492000  3.478000
C  4.267000  4.355000  4.888000
H  4.721000  3.441000  4.565000
H  3.209000  4.460000  4.750000
H  4.766000  5.126000  4.292000
20
Lattice="25.0 0.0 0.0 0.0 25.0 0.0 0.0 0.0 50.0" Properties=species:S:1:pos:R:3 pbc="F F F" Time = 0.0 Energy= 280.457
H  7.936000  4.573000  9.353000
C  7.575000  4.538000  8.248000
C  6.180000  4.512000  7.871000
H  5.441000  4.725000  8.593000
C  5.962000  4.560000  6.435000
O  4.700000  4.625000  5.948000
C  6.972000  4.276000  5.568000
H  6.809000  4.149000  4.513000
C  8.344000  4.242000  6.020000
C  8.641000  4.377000  7.374000
H  9.692000  4.243000  7.738000
O  9.499000  4.087000  5.329000
C  9.494000  4.345000  3.924000
H  9.015000  3.608000  3.326000
H  8.928000  5.280000  3.818000
H  10.580000  4.397000  3.502000
C  4.266000  4.712000  4.608000
H  4.416000  3.726000  4.173000
H  3.231000  5.081000  4.644000
H  4.839000  5.364000  3.978000
20
Lattice="25.0 0.0 0.0 0.0 25.0 0.0 0.0 0.0 50.0" Properties=species:S:1:pos:R:3 pbc="F F F" Time = 0.0 Energy= 291.858
H  7.494000  4.482000  9.433000
C  7.418000  4.416000  8.327000
C  6.182000  4.591000  7.733000
H  5.248000  4.691000  8.317000
C  5.981000  4.492000  6.314000
O  4.649000  4.649000  6.030000
C  7.074000  4.489000  5.433000
H  7.044000  4.469000  4.397000
C  8.393000  4.432000  6.011000
C  8.570000  4.464000  7.474000
H  9.576000  4.708000  7.970000
O  9.543000  4.267000  5.258000
C  9.487000  4.366000  3.861000
H  9.132000  3.412000  3.443000
H  9.043000  5.219000  3.487000
H  10.576000  4.522000  3.588000
C  4.419000  4.794000  4.542000
H  4.449000  3.841000  3.924000
H  3.464000  5.308000  4.512000
H  5.132000  5.500000  4.186000
20
Lattice="25.0 0.0 0.0 0.0 25.0 0.0 0.0 0.0 50.0" Properties=species:S:1:pos:R:3 pbc="F F F" Time = 0.0 Energy= 280.62899999999996
H  7.510000  4.618000  9.343000
C  7.446000  4.549000  8.297000
C  6.097000  4.582000  7.787000
H  5.167000  4.588000  8.452000
C  5.994000  4.595000  6.357000
O  4.709000  4.663000  5.723000
C  7.105000  4.698000  5.502000
H  6.923000  4.563000  4.390000
C  8.399000  4.582000  6.048000
C  8.534000  4.509000  7.452000
H  9.495000  4.421000  7.912000
O  9.576000  4.598000  5.296000
C  9.412000  4.405000  3.943000
H  8.857000  3.442000  3.748000
H  8.817000  5.292000  3.416000
H  10.348000  4.295000  3.515000
C  4.563000  5.004000  4.357000
H  4.816000  4.309000  3.577000
H  3.539000  5.395000  4.340000
H  5.226000  5.899000  4.061000
20
Lattice="25.0 0.0 0.0 0.0 25.0 0.0 0.0 0.0 50.0" Properties=species:S:1:pos:R:3 pbc="F F F" Time = 0.0 Energy= 284.7490000000001
H  7.238000  4.732000  9.475000
C  7.249000  4.643000  8.300000
C  5.924000  4.685000  7.738000
H  5.028000  4.822000  8.271000
C  5.861000  4.843000  6.327000
O  4.621000  5.089000  5.784000
C  7.049000  4.742000  5.469000
H  6.932000  4.897000  4.355000
C  8.369000  4.625000  5.977000
C  8.348000  4.541000  7.426000
H  9.320000  4.575000  7.853000
O  9.488000  4.457000  5.236000
C  9.313000  4.514000  3.836000
H  8.590000  3.736000  3.476000
H  9.044000  5.473000  3.391000
H  10.395000  4.123000  3.406000
C  4.564000  5.171000  4.329000
H  5.247000  4.453000  3.768000
H  3.477000  5.045000  4.124000
H  4.860000  6.105000  3.857000
20
Lattice="25.0 0.0 0.0 0.0 25.0 0.0 0.0 0.0 50.0" Properties=species:S:1:pos:R:3 pbc="F F F" Time = 0.0 Energy= 277.892
H  7.055000  4.385000  9.345000
C  6.997000  4.491000  8.272000
C  5.762000  4.991000  7.755000
H  4.922000  5.241000  8.376000
C  5.594000  5.001000  6.349000
O  4.315000  5.203000  5.993000
C  6.703000  4.824000  5.521000
H  6.692000  4.837000  4.367000
C  7.936000  4.306000  6.060000
C  8.040000  4.066000  7.404000
H  8.964000  3.776000  7.908000
O  8.998000  4.116000  5.252000
C  9.095000  4.517000  3.935000
H  8.501000  3.962000  3.183000
H  8.886000  5.651000  3.819000
H  10.097000  4.399000  3.672000
C  4.171000  5.331000  4.625000
H  4.542000  4.546000  3.929000
H  3.070000  5.227000  4.529000
H  4.325000  6.348000  4.188000
20
Lattice="25.0 0.0 0.0 0.0 25.0 0.0 0.0 0.0 50.0" Properties=species:S:1:pos:R:3 pbc="F F F" Time = 0.0 Energy= 294.403
H  7.613000  3.780000  9.438000
C  7.385000  3.995000  8.409000
C  6.149000  4.442000  7.891000
H  5.266000  4.614000  8.515000
C  6.029000  4.587000  6.477000
O  4.716000  4.645000  6.051000
C  7.078000  4.478000  5.551000
H  6.935000  4.695000  4.528000
C  8.326000  4.106000  6.135000
C  8.530000  3.853000  7.527000
H  9.572000  3.675000  7.936000
O  9.485000  3.997000  5.407000
C  9.535000  4.308000  3.983000
H  9.619000  3.308000  3.383000
H  8.587000  4.985000  3.751000
H  10.348000  4.936000  3.772000
C  4.565000  5.275000  4.712000
H  4.808000  4.609000  3.918000
H  3.518000  5.543000  4.611000
H  5.053000  6.243000  4.633000
20
Lattice="25.0 0.0 0.0 0.0 25.0 0.0 0.0 0.0 50.0" Properties=species:S:1:pos:R:3 pbc="F F F" Time = 0.0 Energy= 294.403
H  7.543000  3.918000  9.487000
C  7.454000  4.029000  8.378000
C  6.190000  4.425000  7.891000
H  5.330000  4.467000  8.586000
C  6.041000  4.628000  6.508000
O  4.666000  4.618000  6.043000
C  7.080000  4.466000  5.567000
H  7.024000  4.728000  4.485000
C  8.355000  4.100000  6.145000
C  8.553000  3.840000  7.497000
H  9.546000  3.767000  7.857000
O  9.493000  3.975000  5.411000
C  9.540000  4.247000  4.023000
H  9.633000  3.336000  3.477000
H  8.754000  4.792000  3.609000
H  10.517000  4.828000  3.875000
C  4.549000  5.311000  4.730000
H  4.968000  4.679000  3.845000
H  3.466000  5.453000  4.623000
H  5.149000  6.236000  4.461000
20
Lattice="25.0 0.0 0.0 0.0 25.0 0.0 0.0 0.0 50.0" Properties=species:S:1:pos:R:3 pbc="F F F" Time = 0.0 Energy= 275.874
H  7.730000  3.981000  9.646000
C  7.622000  3.945000  8.498000
C  6.385000  4.359000  8.027000
H  5.490000  4.606000  8.621000
C  6.240000  4.454000  6.581000
O  5.030000  5.061000  6.284000
C  7.282000  4.094000  5.734000
H  7.061000  4.212000  4.604000
C  8.480000  3.602000  6.301000
C  8.657000  3.578000  7.663000
H  9.617000  3.217000  8.048000
O  9.553000  3.177000  5.471000
C  9.725000  3.665000  4.054000
H  8.821000  3.425000  3.461000
H  9.889000  4.804000  3.988000
H  10.557000  3.103000  3.737000
C  4.467000  4.967000  4.859000
H  5.018000  4.106000  4.492000
H  3.377000  4.682000  4.911000
H  4.801000  5.872000  4.320000
20
Lattice="25.0 0.0 0.0 0.0 25.0 0.0 0.0 0.0 50.0" Properties=species:S:1:pos:R:3 pbc="F F F" Time = 0.0 Energy= 290.186
H  7.506000  2.659000  9.481000
C  7.542000  3.217000  8.546000
C  6.317000  3.834000  8.149000
H  5.540000  3.899000  8.956000
C  6.200000  4.401000  6.888000
O  4.980000  4.899000  6.500000
C  7.338000  4.497000  6.022000
H  7.309000  5.060000  4.999000
C  8.456000  3.722000  6.318000
C  8.579000  3.090000  7.614000
H  9.426000  2.332000  7.754000
O  9.430000  3.261000  5.480000
C  9.236000  3.672000  3.981000
H  8.264000  3.242000  3.505000
H  9.271000  4.783000  3.863000
H  10.058000  3.309000  3.381000
C  4.725000  4.969000  5.090000
H  5.078000  3.995000  4.685000
H  3.656000  5.073000  4.815000
H  5.095000  5.827000  4.468000
20
Lattice="25.0 0.0 0.0 0.0 25.0 0.0 0.0 0.0 50.0" Properties=species:S:1:pos:R:3 pbc="F F F" Time = 0.0 Energy= 286.899
H  7.749000  2.693000  9.498000
C  7.578000  3.074000  8.518000
C  6.374000  3.665000  8.231000
H  5.579000  3.853000  8.932000
C  6.072000  4.245000  7.028000
O  4.889000  5.060000  6.963000
C  6.978000  4.186000  5.936000
H  6.710000  4.552000  4.953000
C  8.216000  3.575000  6.204000
C  8.511000  3.025000  7.508000
H  9.507000  2.611000  7.733000
O  9.330000  3.702000  5.396000
C  9.170000  3.774000  3.968000
H  8.161000  3.641000  3.595000
H  9.657000  4.712000  3.556000
H  9.880000  2.874000  3.575000
C  4.526000  5.483000  5.689000
H  4.234000  4.749000  4.972000
H  3.748000  6.169000  5.845000
H  5.310000  6.093000  5.308000
20
Lattice="25.0 0.0 0.0 0.0 25.0 0.0 0.0 0.0 50.0" Properties=species:S:1:pos:R:3 pbc="F F F" Time = 0.0 Energy= 281.235
H  8.133000  2.845000  9.484000
C  7.860000  3.217000  8.541000
C  6.580000  3.768000  8.404000
H  5.977000  3.861000  9.353000
C  6.105000  4.121000  7.127000
O  4.861000  4.764000  7.078000
C  6.994000  4.069000  5.996000
H  6.634000  4.374000  4.943000
C  8.311000  3.715000  6.194000
C  8.757000  3.227000  7.432000
H  9.856000  2.751000  7.472000
O  9.210000  3.777000  5.221000
C  8.855000  4.643000  4.027000
H  7.972000  4.364000  3.502000
H  8.808000  5.701000  4.273000
H  9.785000  4.412000  3.338000
C  4.439000  4.958000  5.696000
H  4.355000  3.952000  5.085000
H  3.362000  5.312000  5.667000
H  5.060000  5.659000  5.048000
20
Lattice="25.0 0.0 0.0 0.0 25.0 0.0 0.0 0.0 50.0" Properties=species:S:1:pos:R:3 pbc="F F F" Time = 0.0 Energy= 278.572
H  8.256000  3.710000  9.628000
C  7.907000  3.863000  8.527000
C  6.613000  4.154000  8.187000
H  5.758000  4.106000  8.895000
C  6.230000  4.462000  6.914000
O  4.916000  4.782000  6.743000
C  7.183000  4.476000  5.825000
H  6.892000  4.694000  4.731000
C  8.499000  4.239000  6.183000
C  8.875000  3.925000  7.516000
H  9.891000  3.712000  7.787000
O  9.592000  4.190000  5.270000
C  9.604000  4.657000  3.913000
H  8.860000  4.020000  3.286000
H  9.244000  5.697000  3.826000
H  10.587000  4.492000  3.672000
C  4.665000  5.291000  5.380000
H  4.642000  4.430000  4.693000
H  3.673000  5.694000  5.378000
H  5.502000  5.959000  5.103000
20
Lattice="25.0 0.0 0.0 0.0 25.0 0.0 0.0 0.0 50.0" Properties=species:S:1:pos:R:3 pbc="F F F" Time = 0.0 Energy= 277.216
H  7.921000  3.434000  9.506000
C  7.696000  3.818000  8.421000
C  6.410000  4.252000  8.060000
H  5.650000  4.549000  8.827000
C  6.191000  4.610000  6.728000
O  4.882000  4.984000  6.368000
C  7.232000  4.691000  5.785000
H  7.211000  4.932000  4.646000
C  8.524000  4.255000  6.204000
C  8.716000  3.710000  7.512000
H  9.703000  3.386000  7.665000
O  9.642000  4.221000  5.356000
C  9.491000  4.469000  3.900000
H  8.703000  3.852000  3.421000
H  9.059000  5.463000  3.745000
H  10.511000  4.352000  3.538000
C  4.806000  5.401000  4.914000
H  5.192000  4.557000  4.205000
H  3.712000  5.468000  4.804000
H  5.405000  6.320000  4.833000
20
Lattice="25.0 0.0 0.0 0.0 25.0 0.0 0.0 0.0 50.0" Properties=species:S:1:pos:R:3 pbc="F F F" Time = 0.0 Energy= 282.36799999999994
H  6.647000  4.633000  9.040000
C  6.526000  4.636000  7.975000
C  5.296000  4.582000  7.308000
H  4.373000  4.716000  7.830000
C  5.302000  4.397000  5.927000
O  4.190000  4.621000  5.202000
C  6.552000  4.291000  5.194000
H  6.567000  4.136000  4.115000
C  7.730000  4.398000  5.889000
C  7.754000  4.627000  7.303000
H  8.675000  4.626000  7.964000
O  9.010000  4.281000  5.390000
C  9.100000  4.108000  3.946000
H  8.829000  3.117000  3.599000
H  8.427000  4.693000  3.398000
H  10.211000  4.401000  3.727000
C  4.264000  5.195000  3.930000
H  4.549000  4.437000  3.190000
H  3.312000  5.496000  3.474000
H  5.044000  6.000000  3.863000
20
Lattice="25.0 0.0 0.0 0.0 25.0 0.0 0.0 0.0 50.0" Properties=species:S:1:pos:R:3 pbc="F F F" Time = 0.0 Energy= 276.46
H  7.553000  3.901000  8.980000
C  7.410000  4.115000  7.968000
C  6.040000  4.204000  7.514000
H  5.186000  4.049000  8.233000
C  5.782000  4.595000  6.157000
O  4.483000  4.993000  5.867000
C  6.858000  4.765000  5.311000
H  6.680000  5.047000  4.274000
C  8.217000  4.649000  5.770000
C  8.439000  4.355000  7.081000
H  9.495000  4.208000  7.342000
O  9.292000  4.839000  4.929000
C  9.130000  5.197000  3.576000
H  8.585000  4.368000  2.999000
H  8.538000  6.156000  3.452000
H  10.056000  5.276000  3.102000
C  4.223000  5.362000  4.511000
H  4.165000  4.530000  3.842000
H  3.264000  5.891000  4.485000
H  4.906000  6.178000  4.133000
20
Lattice="25.0 0.0 0.0 0.0 25.0 0.0 0.0 0.0 50.0" Properties=species:S:1:pos:R:3 pbc="F F F" Time = 0.0 Energy= 277.301
H  7.774000  4.264000  9.220000
C  7.511000  4.293000  8.056000
C  6.114000  4.500000  7.719000
H  5.304000  4.457000  8.518000
C  5.811000  4.701000  6.392000
O  4.435000  4.909000  6.031000
C  6.822000  4.750000  5.380000
H  6.541000  4.996000  4.385000
C  8.174000  4.506000  5.699000
C  8.530000  4.314000  7.118000
H  9.621000  4.318000  7.328000
O  9.311000  4.560000  4.928000
C  9.127000  4.774000  3.440000
H  8.733000  3.837000  2.998000
H  8.563000  5.672000  3.235000
H  10.157000  4.935000  3.161000
C  4.235000  5.055000  4.624000
H  4.621000  4.222000  4.017000
H  3.224000  5.310000  4.360000
H  4.829000  5.884000  4.207000
20
Lattice="25.0 0.0 0.0 0.0 25.0 0.0 0.0 0.0 50.0" Properties=species:S:1:pos:R:3 pbc="F F F" Time = 0.0 Energy= 270.794
H  7.741000  4.020000  9.214000
C  7.472000  4.105000  8.075000
C  6.194000  4.571000  7.720000
H  5.282000  4.640000  8.414000
C  5.906000  4.614000  6.377000
O  4.586000  4.650000  5.992000
C  6.962000  4.475000  5.435000
H  6.790000  4.463000  4.393000
C  8.268000  4.234000  5.813000
C  8.526000  3.990000  7.206000
H  9.577000  3.841000  7.547000
O  9.373000  4.331000  5.025000
C  9.213000  4.685000  3.638000
H  8.616000  3.967000  3.123000
H  8.879000  5.717000  3.591000
H  10.231000  4.640000  3.112000
C  4.424000  4.870000  4.608000
H  4.696000  3.990000  3.952000
H  3.424000  5.252000  4.375000
H  5.121000  5.581000  4.143000
20
Lattice="25.0 0.0 0.0 0.0 25.0 0.0 0.0 0.0 50.0" Properties=species:S:1:pos:R:3 pbc="F F F" Time = 0.0 Energy= 276.292