20
Lattice="25.0 0.0 0.0 0.0 25.0 0.0 0.0 0.0 50.0" Properties=species:S:1:pos:R:3 pbc="F F F" Time = 0.0 Energy= 278.23199999999997
C  3.490000  7.375000  25.882000
C  3.210000  8.279000  26.919000
C  4.227000  8.964000  27.683000
C  5.554000  8.820000  27.236000
C  5.870000  7.969000  26.176000
C  4.886000  7.206000  25.572000
O  5.118000  6.341000  24.589000
C  6.267000  6.576000  23.653000
H  7.199000  6.573000  24.233000
H  6.379000  5.745000  22.935000
H  6.257000  7.534000  23.076000
H  6.416000  9.376000  27.712000
H  6.850000  7.720000  25.860000
H  2.140000  8.446000  27.115000
H  3.831000  9.679000  28.410000
O  2.656000  6.544000  25.197000
C  1.291000  6.446000  25.767000
H  0.788000  5.625000  25.193000
H  0.803000  7.393000  25.635000
H  1.491000  6.190000  26.894000
20
Lattice="25.0 0.0 0.0 0.0 25.0 0.0 0.0 0.0 50.0" Properties=species:S:1:pos:R:3 pbc="F F F" Time = 0.0 Energy= 278.23199999999997
C  3.645000  7.575000  25.900000
C  3.424000  8.253000  27.085000
C  4.389000  9.020000  27.712000
C  5.652000  8.975000  27.175000
C  5.949000  8.284000  25.985000
C  4.907000  7.603000  25.323000
O  4.913000  7.018000  24.065000
C  6.293000  6.485000  23.765000
H  6.772000  5.820000  24.556000
H  6.350000  5.902000  22.784000
H  6.904000  7.365000  23.609000
H  6.413000  9.534000  27.696000
H  7.028000  8.204000  25.794000
H  2.455000  8.376000  27.474000
H  4.218000  9.652000  28.577000
O  2.638000  6.867000  25.200000
C  1.289000  7.221000  25.645000
H  0.651000  6.416000  25.239000
H  0.944000  8.265000  25.174000
H  1.281000  7.203000  26.727000
20
Lattice="25.0 0.0 0.0 0.0 25.0 0.0 0.0 0.0 50.0" Properties=species:S:1:pos:R:3 pbc="F F F" Time = 0.0 Energy= 291.765
C  3.615000  7.710000  25.948000
C  3.350000  8.376000  27.160000
C  4.437000  9.019000  27.783000
C  5.744000  9.022000  27.217000
C  5.991000  8.253000  26.050000
C  4.907000  7.676000  25.371000
O  5.023000  7.056000  24.154000
C  6.312000  6.396000  23.665000
H  6.693000  5.629000  24.447000
H  6.035000  5.985000  22.653000
H  7.094000  7.140000  23.472000
H  6.549000  9.572000  27.645000
H  6.897000  8.334000  25.379000
H  2.398000  8.267000  27.639000
H  4.313000  9.465000  28.773000
O  2.686000  7.049000  25.165000
C  1.285000  7.201000  25.541000
H  0.749000  6.463000  24.945000
H  1.021000  8.210000  25.319000
H  1.119000  7.044000  26.605000
20
Lattice="25.0 0.0 0.0 0.0 25.0 0.0 0.0 0.0 50.0" Properties=species:S:1:pos:R:3 pbc="F F F" Time = 0.0 Energy= 290.001
C  3.704000  7.727000  25.927000
C  3.478000  8.403000  27.153000
C  4.531000  8.970000  27.871000
C  5.853000  8.823000  27.439000
C  6.083000  8.112000  26.236000
C  5.023000  7.631000  25.384000
O  5.179000  7.047000  24.138000
C  6.490000  6.667000  23.840000
H  6.911000  6.035000  24.639000
H  6.331000  6.281000  22.807000
H  7.087000  7.631000  23.775000
H  6.702000  9.332000  28.021000
H  7.093000  8.069000  25.867000
H  2.427000  8.661000  27.445000
H  4.397000  9.512000  28.827000
O  2.619000  7.462000  25.085000
C  1.352000  7.134000  25.693000
H  0.692000  7.252000  24.858000
H  1.118000  7.782000  26.586000
H  1.455000  6.148000  26.001000
20
Lattice="25.0 0.0 0.0 0.0 25.0 0.0 0.0 0.0 50.0" Properties=species:S:1:pos:R:3 pbc="F F F" Time = 0.0 Energy= 286.179
C  3.830000  7.855000  25.973000
C  3.528000  8.361000  27.269000
C  4.627000  8.712000  28.128000
C  5.949000  8.596000  27.681000
C  6.223000  8.128000  26.380000
C  5.149000  7.678000  25.516000
O  5.263000  7.176000  24.247000
C  6.553000  6.965000  23.927000
H  7.142000  6.344000  24.604000
H  6.555000  6.519000  22.952000
H  7.067000  7.990000  23.763000
H  6.787000  8.841000  28.362000
H  7.266000  8.146000  25.971000
H  2.500000  8.315000  27.657000
H  4.586000  9.224000  29.073000
O  2.912000  7.341000  25.079000
C  1.593000  7.067000  25.577000
H  0.989000  6.797000  24.699000
H  1.129000  7.954000  26.066000
H  1.673000  6.237000  26.273000
20
Lattice="25.0 0.0 0.0 0.0 25.0 0.0 0.0 0.0 50.0" Properties=species:S:1:pos:R:3 pbc="F F F" Time = 0.0 Energy= 286.358
C  4.049000  7.685000  26.078000
C  3.719000  8.151000  27.377000
C  4.692000  8.515000  28.337000
C  6.082000  8.371000  27.974000
C  6.457000  8.020000  26.643000
C  5.464000  7.757000  25.682000
O  5.731000  7.467000  24.381000
C  7.085000  7.181000  24.047000
H  7.349000  6.324000  24.659000
H  7.091000  6.774000  23.033000
H  7.820000  8.053000  24.099000
H  6.869000  8.421000  28.700000
H  7.517000  7.786000  26.385000
H  2.692000  8.212000  27.742000
H  4.413000  8.980000  29.310000
O  3.166000  7.095000  25.183000
C  1.818000  6.896000  25.481000
H  1.481000  5.943000  24.977000
H  1.194000  7.686000  25.040000
H  1.526000  6.774000  26.578000
20
Lattice="25.0 0.0 0.0 0.0 25.0 0.0 0.0 0.0 50.0" Properties=species:S:1:pos:R:3 pbc="F F F" Time = 0.0 Energy= 279.511
C  4.256000  7.414000  26.387000
C  3.963000  7.861000  27.715000
C  4.980000  8.492000  28.444000
C  6.299000  8.537000  28.015000
C  6.583000  7.962000  26.766000
C  5.613000  7.341000  25.965000
O  5.869000  6.854000  24.688000
C  7.176000  6.607000  24.437000
H  7.532000  5.945000  25.257000
H  7.173000  6.166000  23.397000
H  7.839000  7.424000  24.352000
H  7.042000  9.117000  28.647000
H  7.571000  8.084000  26.338000
H  2.926000  7.837000  28.082000
H  4.827000  9.046000  29.406000
O  3.394000  6.962000  25.410000
C  2.034000  6.694000  25.802000
H  1.512000  6.365000  24.859000
H  1.503000  7.581000  26.217000
H  1.869000  5.864000  26.603000
20
Lattice="25.0 0.0 0.0 0.0 25.0 0.0 0.0 0.0 50.0" Properties=species:S:1:pos:R:3 pbc="F F F" Time = 0.0 Energy= 278.316
C  4.343000  7.484000  26.359000
C  3.954000  7.975000  27.606000
C  4.989000  8.507000  28.413000
C  6.323000  8.472000  28.051000
C  6.654000  7.988000  26.787000
C  5.692000  7.413000  25.920000
O  5.912000  6.850000  24.689000
C  7.182000  6.355000  24.410000
H  7.551000  5.890000  25.317000
H  6.991000  5.661000  23.611000
H  7.915000  7.108000  23.964000
H  7.023000  8.831000  28.774000
H  7.722000  7.805000  26.548000
H  2.907000  7.914000  27.960000
H  4.841000  8.920000  29.415000
O  3.442000  6.781000  25.547000
C  2.066000  6.753000  26.030000
H  1.514000  6.114000  25.313000
H  1.581000  7.804000  26.048000
H  1.886000  6.350000  27.018000
20
Lattice="25.0 0.0 0.0 0.0 25.0 0.0 0.0 0.0 50.0" Properties=species:S:1:pos:R:3 pbc="F F F" Time = 0.0 Energy= 284.66
C  4.946000  7.785000  25.825000
C  4.800000  8.463000  27.042000
C  5.940000  9.061000  27.664000
C  7.191000  8.812000  27.032000
C  7.311000  8.137000  25.801000
C  6.152000  7.660000  25.107000
O  6.071000  6.947000  23.943000
C  7.196000  6.447000  23.238000
H  7.675000  5.563000  23.746000
H  6.857000  6.029000  22.314000
H  8.001000  7.206000  23.036000
H  8.115000  9.112000  27.529000
H  8.300000  7.880000  25.413000
H  3.824000  8.436000  27.493000
H  5.876000  9.580000  28.640000
O  3.898000  7.170000  25.094000
C  2.615000  6.882000  25.749000
H  1.980000  6.427000  24.987000
H  2.104000  7.838000  26.127000
H  2.801000  6.171000  26.570000
20
Lattice="25.0 0.0 0.0 0.0 25.0 0.0 0.0 0.0 50.0" Properties=species:S:1:pos:R:3 pbc="F F F" Time = 0.0 Energy= 288.99000000000007
C  4.679000  7.855000  26.121000
C  4.707000  8.584000  27.285000
C  6.027000  8.958000  27.741000
C  7.214000  8.684000  27.008000
C  7.116000  7.979000  25.805000
C  5.817000  7.554000  25.344000
O  5.530000  6.912000  24.187000
C  6.624000  6.631000  23.255000
H  7.330000  5.800000  23.618000
H  6.108000  6.307000  22.306000
H  7.163000  7.612000  23.007000
H  8.231000  8.934000  27.276000
H  7.932000  7.733000  25.137000
H  3.847000  8.908000  27.889000
H  6.068000  9.499000  28.698000
O  3.481000  7.500000  25.488000
C  2.205000  7.399000  26.173000
H  1.717000  6.407000  25.827000
H  1.574000  8.252000  25.891000
H  2.459000  7.431000  27.317000
20
Lattice="25.0 0.0 0.0 0.0 25.0 0.0 0.0 0.0 50.0" Properties=species:S:1:pos:R:3 pbc="F F F" Time = 0.0 Energy= 277.385
C  4.435000  7.884000  26.015000
C  4.555000  8.550000  27.248000
C  5.868000  8.944000  27.723000
C  6.983000  8.594000  27.005000
C  6.810000  7.923000  25.827000
C  5.549000  7.586000  25.232000
O  5.409000  7.003000  23.991000
C  6.629000  6.581000  23.368000
H  7.018000  5.796000  23.971000
H  6.360000  6.092000  22.479000
H  7.422000  7.341000  23.215000
H  8.015000  8.834000  27.412000
H  7.666000  7.537000  25.214000
H  3.746000  8.927000  27.854000
H  6.042000  9.521000  28.656000
O  3.178000  7.503000  25.475000
C  2.167000  7.323000  26.485000
H  1.257000  7.004000  25.948000
H  1.989000  8.146000  27.140000
H  2.446000  6.448000  27.159000
20
Lattice="25.0 0.0 0.0 0.0 25.0 0.0 0.0 0.0 50.0" Properties=species:S:1:pos:R:3 pbc="F F F" Time = 0.0 Energy= 279.854
C  4.425000  7.691000  26.150000
C  4.508000  8.355000  27.432000
C  5.721000  8.757000  28.008000
C  6.909000  8.493000  27.338000
C  6.883000  7.813000  26.075000
C  5.666000  7.513000  25.460000
O  5.481000  6.852000  24.278000
C  6.707000  6.280000  23.680000
H  7.058000  5.657000  24.574000
H  6.364000  5.781000  22.781000
H  7.472000  7.077000  23.364000
H  7.842000  8.755000  27.931000
H  7.901000  7.540000  25.733000
H  3.560000  8.449000  27.926000
H  5.720000  9.350000  28.952000
O  3.304000  7.167000  25.526000
C  1.994000  7.416000  26.028000
H  1.310000  6.891000  25.296000
H  1.751000  8.461000  25.987000
H  1.979000  6.924000  27.083000
20
Lattice="25.0 0.0 0.0 0.0 25.0 0.0 0.0 0.0 50.0" Properties=species:S:1:pos:R:3 pbc="F F F" Time = 0.0 Energy= 291.206
C  3.940000  7.444000  26.072000
C  3.621000  7.804000  27.409000
C  4.698000  7.982000  28.311000
C  6.068000  7.931000  27.840000
C  6.311000  7.722000  26.447000
C  5.262000  7.458000  25.537000
O  5.367000  7.298000  24.124000
C  6.683000  6.865000  23.771000
H  6.890000  5.840000  24.298000
H  6.598000  6.671000  22.710000
H  7.441000  7.623000  24.049000
H  6.953000  8.074000  28.486000
H  7.261000  7.904000  25.989000
H  2.614000  7.815000  27.750000
H  4.449000  8.170000  29.387000
O  2.981000  7.079000  25.129000
C  1.684000  6.565000  25.671000
H  1.184000  5.886000  24.933000
H  1.079000  7.534000  25.776000
H  1.854000  6.148000  26.654000
20
Lattice="25.0 0.0 0.0 0.0 25.0 0.0 0.0 0.0 50.0" Properties=species:S:1:pos:R:3 pbc="F F F" Time = 0.0 Energy= 287.08
C  3.885000  7.048000  25.932000
C  3.541000  7.264000  27.315000
C  4.467000  7.831000  28.185000
C  5.775000  8.180000  27.712000
C  6.148000  7.841000  26.358000
C  5.202000  7.354000  25.442000
O  5.342000  7.187000  24.057000
C  6.665000  6.746000  23.711000
H  6.978000  5.842000  24.354000
H  6.614000  6.391000  22.634000
H  7.443000  7.537000  23.750000
H  6.584000  8.682000  28.297000
H  7.104000  8.036000  25.860000
H  2.456000  7.112000  27.625000
H  4.133000  8.104000  29.185000
O  2.951000  6.812000  24.906000
C  1.556000  6.754000  25.249000
H  1.033000  6.489000  24.298000
H  1.261000  7.716000  25.671000
H  1.211000  5.924000  26.010000
20
Lattice="25.0 0.0 0.0 0.0 25.0 0.0 0.0 0.0 50.0" Properties=species:S:1:pos:R:3 pbc="F F F" Time = 0.0 Energy= 286.179
C  3.637000  7.006000  25.624000
C  3.235000  7.382000  26.902000
C  4.250000  7.885000  27.806000
C  5.571000  8.025000  27.488000
C  5.973000  7.645000  26.209000
C  5.011000  7.096000  25.244000
O  5.339000  6.733000  23.970000
C  6.729000  6.706000  23.669000
H  7.380000  6.080000  24.396000
H  6.756000  6.168000  22.716000
H  7.131000  7.759000  23.514000
H  6.345000  8.426000  28.159000
H  6.955000  7.880000  25.838000
H  2.255000  7.246000  27.371000
H  4.035000  8.113000  28.875000
O  2.756000  6.715000  24.632000
C  1.368000  6.515000  24.904000
H  0.736000  6.224000  24.022000
H  0.964000  7.423000  25.523000
H  1.328000  5.670000  25.568000
20
Lattice="25.0 0.0 0.0 0.0 25.0 0.0 0.0 0.0 50.0" Properties=species:S:1:pos:R:3 pbc="F F F" Time = 0.0 Energy= 279.169
C  3.381000  7.345000  25.424000
C  3.027000  7.910000  26.686000
C  3.993000  8.188000  27.613000
C  5.345000  7.876000  27.386000
C  5.751000  7.268000  26.185000
C  4.787000  7.047000  25.223000
O  5.062000  6.621000  23.919000
C  6.525000  6.414000  23.664000
H  7.001000  5.545000  24.140000
H  6.566000  6.143000  22.607000
H  7.143000  7.380000  23.876000
H  6.122000  8.166000  28.110000
H  6.807000  7.133000  26.011000
H  1.962000  8.140000  26.897000
H  3.831000  8.842000  28.524000
O  2.465000  7.069000  24.418000
C  1.065000  7.113000  24.699000
H  0.694000  6.702000  23.727000
H  0.724000  8.190000  24.913000
H  0.738000  6.458000  25.475000
20
Lattice="25.0 0.0 0.0 0.0 25.0 0.0 0.0 0.0 50.0" Properties=species:S:1:pos:R:3 pbc="F F F" Time = 0.0 Energy= 290.094
C  3.647000  7.553000  25.497000
C  3.178000  8.166000  26.666000
C  4.048000  8.518000  27.703000
C  5.460000  8.216000  27.572000
C  5.944000  7.592000  26.390000
C  5.045000  7.271000  25.368000
O  5.399000  6.698000  24.173000
C  6.860000  6.643000  23.850000
H  7.443000  5.902000  24.401000
H  6.803000  6.233000  22.853000
H  7.421000  7.667000  23.957000
H  5.974000  8.464000  28.524000
H  7.016000  7.269000  26.499000
H  2.129000  8.394000  26.686000
H  3.657000  8.881000  28.631000
O  2.861000  7.462000  24.370000
C  1.445000  7.273000  24.495000
H  1.081000  7.303000  23.423000
H  0.957000  8.194000  25.047000
H  1.278000  6.293000  24.946000
20
Lattice="25.0 0.0 0.0 0.0 25.0 0.0 0.0 0.0 50.0" Properties=species:S:1:pos:R:3 pbc="F F F" Time = 0.0 Energy= 299.037
C  3.925000  7.513000  26.026000
C  3.613000  7.689000  27.454000
C  4.664000  7.679000  28.327000
C  6.034000  7.652000  27.888000
C  6.364000  7.636000  26.425000
C  5.304000  7.598000  25.518000
O  5.496000  7.546000  24.159000
C  6.840000  7.023000  23.860000
H  7.071000  6.178000  24.506000
H  6.826000  6.743000  22.816000
H  7.612000  7.780000  23.963000
H  6.825000  7.685000  28.624000
H  7.394000  7.747000  26.107000
H  2.480000  7.744000  27.642000
H  4.475000  7.735000  29.399000
O  2.916000  7.346000  25.103000
C  1.539000  7.134000  25.502000
H  0.929000  7.049000  24.565000
H  1.270000  8.143000  26.009000
H  1.382000  6.296000  26.201000
20
Lattice="25.0 0.0 0.0 0.0 25.0 0.0 0.0 0.0 50.0" Properties=species:S:1:pos:R:3 pbc="F F F" Time = 0.0 Energy= 291.578
C  3.111000  6.963000  26.371000
C  2.632000  7.229000  27.690000
C  3.552000  7.223000  28.811000
C  4.940000  7.078000  28.597000
C  5.431000  6.909000  27.268000
C  4.504000  6.749000  26.177000
O  4.769000  6.437000  24.858000
C  6.127000  6.696000  24.340000
H  6.755000  5.885000  24.639000
H  6.070000  6.869000  23.231000
H  6.504000  7.666000  24.810000
H  5.634000  7.178000  29.486000
H  6.528000  6.821000  27.003000
H  1.611000  7.459000  27.940000
H  3.207000  7.324000  29.864000
O  2.307000  6.839000  25.276000
C  0.822000  6.917000  25.444000
H  0.467000  6.324000  24.617000
H  0.651000  8.013000  25.506000
H  0.595000  6.512000  26.389000
20
Lattice="25.0 0.0 0.0 0.0 25.0 0.0 0.0 0.0 50.0" Properties=species:S:1:pos:R:3 pbc="F F F" Time = 0.0 Energy= 275.042
C  3.028000  6.896000  26.273000
C  2.599000  7.264000  27.594000
C  3.506000  7.323000  28.635000
C  4.871000  7.027000  28.454000
C  5.239000  6.693000  27.088000
C  4.390000  6.734000  26.020000
O  4.801000  6.578000  24.661000
C  6.218000  6.849000  24.384000
H  6.875000  6.034000  24.591000
H  6.262000  7.030000  23.267000
H  6.575000  7.812000  24.917000
H  5.601000  7.032000  29.318000
H  6.365000  6.526000  27.055000
H  1.554000  7.436000  27.785000
H  3.058000  7.618000  29.621000
O  2.225000  6.750000  25.198000
C  0.762000  6.870000  25.331000
H  0.324000  6.454000  24.369000
H  0.404000  7.952000  25.489000
H  0.387000  6.141000  26.128000
20
Lattice="25.0 0.0 0.0 0.0 25.0 0.0 0.0 0.0 50.0" Properties=species:S:1:pos:R:3 pbc="F F F" Time = 0.0 Energy= 283.069
C  2.907000  6.877000  25.820000
C  2.348000  6.855000  27.070000
C  3.200000  6.973000  28.230000
C  4.586000  7.092000  28.148000
C  5.151000  7.105000  26.881000
C  4.347000  6.995000  25.650000
O  4.883000  6.888000  24.326000
C  6.313000  6.537000  24.298000
H  6.575000  5.579000  24.878000
H  6.605000  6.321000  23.256000
H  7.017000  7.346000  24.605000
H  5.227000  7.182000  29.062000
H  6.245000  7.149000  26.654000
H  1.260000  6.744000  27.293000
H  2.814000  6.970000  29.247000
O  2.145000  6.827000  24.572000
C  0.739000  6.641000  24.662000
H  0.303000  6.464000  23.671000
H  0.281000  7.626000  25.051000
H  0.428000  5.923000  25.382000
20
Lattice="25.0 0.0 0.0 0.0 25.0 0.0 0.0 0.0 50.0" Properties=species:S:1:pos:R:3 pbc="F F F" Time = 0.0 Energy= 282.71799999999996
C  2.672000  7.195000  25.654000
C  1.887000  7.287000  26.822000
C  2.587000  7.313000  28.053000
C  3.969000  7.309000  28.079000
C  4.786000  7.217000  26.908000
C  4.127000  7.157000  25.682000
O  4.804000  7.225000  24.397000
C  6.283000  7.042000  24.449000
H  6.497000  6.097000  24.921000
H  6.496000  7.080000  23.383000
H  6.721000  7.964000  25.011000
H  4.317000  7.296000  29.129000
H  5.869000  7.222000  26.998000
H  0.803000  7.357000  26.764000
H  2.026000  7.470000  29.003000
O  2.148000  7.201000  24.330000
C  0.708000  7.193000  24.216000
H  0.455000  7.354000  23.098000
H  0.238000  8.030000  24.859000
H  0.295000  6.227000  24.597000
20
Lattice="25.0 0.0 0.0 0.0 25.0 0.0 0.0 0.0 50.0" Properties=species:S:1:pos:R:3 pbc="F F F" Time = 0.0 Energy= 290.001
C  2.667000  7.170000  25.602000
C  1.857000  7.256000  26.792000
C  2.517000  7.348000  28.045000
C  3.950000  7.330000  28.129000
C  4.774000  7.240000  26.958000
C  4.123000  7.169000  25.710000
O  4.774000  7.215000  24.475000
C  6.173000  7.032000  24.418000
H  6.522000  6.046000  24.871000
H  6.553000  6.977000  23.359000
H  6.769000  7.864000  24.843000
H  4.468000  7.325000  29.127000
H  5.906000  7.257000  26.815000
H  0.783000  7.351000  26.831000
H  1.980000  7.491000  28.948000
O  2.160000  7.209000  24.364000
C  0.707000  7.165000  24.240000
H  0.626000  7.336000  23.221000
H  0.302000  7.999000  24.773000
H  0.361000  6.171000  24.672000
20
Lattice="25.0 0.0 0.0 0.0 25.0 0.0 0.0 0.0 50.0" Properties=species:S:1:pos:R:3 pbc="F F F" Time = 0.0 Energy= 272.738
C  2.662000  7.291000  26.561000
C  1.934000  7.776000  27.618000
C  2.536000  8.556000  28.657000
C  3.876000  8.896000  28.680000
C  4.616000  8.276000  27.634000
C  4.074000  7.493000  26.620000
O  4.827000  6.969000  25.558000
C  6.268000  6.884000  25.537000
H  6.762000  6.562000  26.458000
H  6.361000  6.104000  24.789000
H  6.723000  7.843000  25.107000
H  4.373000  9.463000  29.496000
H  5.730000  8.385000  27.558000
H  0.877000  7.628000  27.717000
H  1.838000  8.933000  29.421000
O  2.168000  6.588000  25.499000
C  0.782000  6.426000  25.295000
H  0.523000  6.299000  24.217000
H  0.237000  7.340000  25.495000
H  0.326000  5.675000  25.926000
20
Lattice="25.0 0.0 0.0 0.0 25.0 0.0 0.0 0.0 50.0" Properties=species:S:1:pos:R:3 pbc="F F F" Time = 0.0 Energy= 279.597
C  2.742000  7.523000  26.757000
C  1.996000  8.261000  27.700000
C  2.650000  8.970000  28.724000
C  4.078000  8.928000  28.739000
C  4.816000  8.250000  27.723000
C  4.163000  7.574000  26.699000
O  4.792000  6.843000  25.677000
C  6.294000  6.889000  25.565000
H  6.833000  6.303000  26.436000
H  6.363000  6.327000  24.653000
H  6.618000  7.931000  25.451000
H  4.658000  9.455000  29.535000
H  5.923000  8.292000  27.824000
H  0.946000  8.207000  27.564000
H  2.154000  9.510000  29.518000
O  2.224000  6.794000  25.680000
C  0.730000  6.564000  25.609000
H  0.568000  5.648000  24.994000
H  0.361000  7.499000  25.298000
H  0.298000  6.301000  26.634000
20
Lattice="25.0 0.0 0.0 0.0 25.0 0.0 0.0 0.0 50.0" Properties=species:S:1:pos:R:3 pbc="F F F" Time = 0.0 Energy= 292.889
C  2.903000  7.957000  26.413000
C  2.261000  8.697000  27.469000
C  3.123000  9.412000  28.341000
C  4.541000  9.415000  28.070000
C  5.181000  8.603000  27.089000
C  4.332000  7.806000  26.269000
O  4.714000  7.011000  25.180000
C  6.133000  6.931000  24.987000
H  6.670000  6.569000  25.882000
H  6.194000  6.244000  24.147000
H  6.616000  7.892000  24.661000
H  5.090000  10.106000  28.759000
H  6.274000  8.670000  26.951000
H  1.174000  8.701000  27.503000
H  2.774000  10.004000  29.214000
O  2.165000  7.317000  25.371000
C  0.768000  7.189000  25.414000
H  0.477000  6.464000  24.674000
H  0.194000  8.147000  25.398000
H  0.488000  6.713000  26.317000
20
Lattice="25.0 0.0 0.0 0.0 25.0 0.0 0.0 0.0 50.0" Properties=species:S:1:pos:R:3 pbc="F F F" Time = 0.0 Energy= 285.37199999999996
C  2.895000  7.872000  26.238000
C  2.381000  8.752000  27.132000
C  3.320000  9.499000  27.980000
C  4.707000  9.274000  27.901000
C  5.239000  8.391000  26.936000
C  4.316000  7.798000  26.027000
O  4.793000  7.096000  24.921000
C  6.200000  6.956000  24.692000
H  6.727000  6.283000  25.325000
H  6.223000  6.486000  23.690000
H  6.783000  7.953000  24.623000
H  5.359000  9.826000  28.652000
H  6.346000  8.272000  26.849000
H  1.337000  8.849000  27.324000
H  2.794000  10.156000  28.672000
O  2.096000  7.128000  25.348000
C  0.669000  7.100000  25.649000
H  0.349000  6.385000  24.922000
H  0.189000  8.048000  25.333000
H  0.587000  6.835000  26.700000
20
Lattice="25.0 0.0 0.0 0.0 25.0 0.0 0.0 0.0 50.0" Properties=species:S:1:pos:R:3 pbc="F F F" Time = 0.0 Energy= 276.292
C  3.308000  8.005000  25.741000
C  2.753000  8.608000  26.833000
C  3.573000  9.169000  27.902000
C  4.964000  9.028000  27.729000
C  5.493000  8.393000  26.583000
C  4.676000  7.834000  25.567000
O  5.021000  7.297000  24.402000
C  6.445000  6.959000  24.167000
H  6.828000  6.225000  24.927000
H  6.311000  6.461000  23.193000
H  7.045000  7.819000  24.007000
H  5.650000  9.388000  28.487000
H  6.620000  8.362000  26.462000
H  1.693000  8.787000  26.941000
H  3.149000  9.695000  28.784000
O  2.393000  7.451000  24.713000
C  1.053000  7.255000  25.033000
H  0.683000  6.552000  24.230000
H  0.506000  8.253000  25.196000
H  0.899000  6.667000  25.937000
20
Lattice="25.0 0.0 0.0 0.0 25.0 0.0 0.0 0.0 50.0" Properties=species:S:1:pos:R:3 pbc="F F F" Time = 0.0 Energy= 295.835
C  4.427000  7.282000  25.980000
C  4.542000  7.061000  27.454000
C  5.730000  6.640000  28.099000
C  6.899000  6.399000  27.260000
C  6.812000  6.646000  25.845000
C  5.602000  7.010000  25.212000
O  5.488000  7.072000  23.838000
C  6.728000  6.962000  23.021000
H  7.152000  5.961000  23.118000
H  6.383000  7.179000  21.980000
H  7.419000  7.767000  23.345000
H  7.879000  6.161000  27.749000
H  7.719000  6.615000  25.177000
H  3.686000  7.238000  28.081000
H  5.765000  6.471000  29.192000
O  3.226000  7.518000  25.316000
C  2.059000  7.628000  26.191000
H  1.148000  7.456000  25.618000
H  1.964000  8.634000  26.501000
H  2.047000  7.022000  27.140000
20
Lattice="25.0 0.0 0.0 0.0 25.0 0.0 0.0 0.0 50.0" Properties=species:S:1:pos:R:3 pbc="F F F" Time = 0.0 Energy= 282.105
C  4.763000  7.194000  26.256000
C  4.966000  6.872000  27.558000
C  6.183000  6.378000  28.031000
C  7.215000  6.216000  27.146000
C  7.128000  6.508000  25.786000
C  5.836000  7.036000  25.335000
O  5.530000  7.324000  24.022000
C  6.445000  6.809000  23.001000
H  6.450000  5.738000  23.033000
H  6.094000  7.260000  22.067000
H  7.528000  7.113000  23.226000
H  8.145000  5.725000  27.410000
H  7.912000  6.249000  25.119000
H  4.112000  6.999000  28.266000
H  6.409000  6.050000  29.047000
O  3.572000  7.654000  25.716000
C  2.301000  7.662000  26.276000
H  1.672000  8.461000  25.811000
H  2.211000  7.776000  27.405000
H  1.889000  6.698000  26.097000
20
Lattice="25.0 0.0 0.0 0.0 25.0 0.0 0.0 0.0 50.0" Properties=species:S:1:pos:R:3 pbc="F F F" Time = 0.0 Energy= 283.421
C  4.926000  7.177000  26.290000
C  5.055000  6.814000  27.588000
C  6.316000  6.264000  28.027000
C  7.380000  6.100000  27.143000
C  7.240000  6.439000  25.755000
C  5.975000  6.907000  25.326000
O  5.604000  7.183000  23.962000
C  6.661000  6.833000  23.010000
H  7.080000  5.773000  23.204000
H  6.203000  6.967000  22.013000
H  7.458000  7.491000  23.098000
H  8.357000  5.696000  27.500000
H  8.047000  6.347000  24.950000
H  4.314000  6.911000  28.355000
H  6.428000  5.963000  29.081000
O  3.746000  7.820000  25.861000
C  2.505000  7.660000  26.510000
H  2.038000  8.632000  26.576000
H  2.640000  7.319000  27.515000
H  1.769000  6.898000  26.105000
20
Lattice="25.0 0.0 0.0 0.0 25.0 0.0 0.0 0.0 50.0" Properties=species:S:1:pos:R:3 pbc="F F F" Time = 0.0 Energy= 285.01599999999996
C  4.963000  7.106000  26.353000
C  5.222000  6.781000  27.702000
C  6.510000  6.212000  28.056000
C  7.520000  6.026000  27.096000
C  7.260000  6.390000  25.786000
C  5.995000  6.836000  25.415000
O  5.740000  7.130000  24.054000
C  6.815000  6.839000  23.075000
H  7.039000  5.717000  23.089000
H  6.471000  7.064000  22.055000
H  7.641000  7.431000  23.274000
H  8.429000  5.568000  27.520000
H  8.088000  6.215000  25.047000
H  4.505000  7.036000  28.463000
H  6.600000  5.964000  29.125000
O  3.814000  7.675000  25.809000
C  2.606000  7.702000  26.591000
H  2.279000  8.742000  26.659000
H  2.898000  7.357000  27.561000
H  1.844000  6.971000  26.137000
20
Lattice="25.0 0.0 0.0 0.0 25.0 0.0 0.0 0.0 50.0" Properties=species:S:1:pos:R:3 pbc="F F F" Time = 0.0 Energy= 286.08899999999994
C  5.114000  6.896000  26.440000
C  5.399000  6.541000  27.747000
C  6.726000  6.355000  28.165000
C  7.745000  6.606000  27.264000
C  7.558000  6.955000  25.917000
C  6.164000  7.018000  25.482000
O  5.816000  7.013000  24.136000
C  6.894000  6.715000  23.215000
H  7.446000  5.751000  23.507000
H  6.437000  6.554000  22.227000
H  7.703000  7.458000  23.236000
H  8.724000  6.549000  27.658000
H  8.434000  7.153000  25.286000
H  4.479000  6.439000  28.405000
H  7.035000  5.995000  29.158000
O  3.856000  7.212000  25.936000
C  2.899000  7.737000  26.902000
H  3.291000  8.061000  27.881000
H  2.033000  7.123000  27.100000
H  2.601000  8.749000  26.484000
20
Lattice="25.0 0.0 0.0 0.0 25.0 0.0 0.0 0.0 50.0" Properties=species:S:1:pos:R:3 pbc="F F F" Time = 0.0 Energy= 287.351
C  5.226000  7.251000  26.394000
C  5.368000  7.157000  27.762000
C  6.645000  6.788000  28.256000
C  7.760000  6.523000  27.413000
C  7.536000  6.754000  26.002000
C  6.280000  7.097000  25.499000
O  5.999000  7.245000  24.183000
C  6.853000  6.713000  23.225000
H  6.670000  5.627000  23.049000
H  6.608000  7.203000  22.239000
H  7.941000  6.852000  23.529000
H  8.698000  6.176000  27.920000
H  8.365000  6.572000  25.341000
H  4.570000  7.429000  28.441000
H  6.836000  6.727000  29.310000
O  4.000000  7.337000  25.766000
C  2.823000  7.387000  26.561000
H  2.556000  8.440000  26.817000
H  2.958000  6.880000  27.562000
H  1.958000  7.034000  25.967000
20
Lattice="25.0 0.0 0.0 0.0 25.0 0.0 0.0 0.0 50.0" Properties=species:S:1:pos:R:3 pbc="F F F" Time = 0.0 Energy= 282.455
C  4.120000  7.479000  25.963000
C  3.883000  8.254000  27.101000
C  5.059000  8.727000  27.827000
C  6.341000  8.396000  27.395000
C  6.526000  7.710000  26.182000
C  5.429000  7.203000  25.460000
O  5.431000  6.574000  24.239000
C  6.630000  6.506000  23.420000
H  7.478000  6.030000  24.032000
H  6.357000  5.920000  22.507000
H  6.858000  7.508000  23.101000
H  7.210000  8.665000  27.959000
H  7.526000  7.657000  25.778000
H  2.835000  8.608000  27.459000
H  4.870000  9.322000  28.690000
O  3.084000  7.044000  25.143000
C  1.695000  7.214000  25.633000
H  1.432000  8.301000  25.699000
H  1.503000  6.706000  26.630000
H  1.034000  6.743000  24.870000
20
Lattice="25.0 0.0 0.0 0.0 25.0 0.0 0.0 0.0 50.0" Properties=species:S:1:pos:R:3 pbc="F F F" Time = 0.0 Energy= 282.80499999999995
C  4.118000  7.477000  25.960000
C  3.883000  8.255000  27.103000
C  5.059000  8.726000  27.830000
C  6.340000  8.392000  27.393000
C  6.520000  7.710000  26.181000
C  5.429000  7.198000  25.459000
O  5.431000  6.573000  24.240000
C  6.627000  6.504000  23.416000
H  7.470000  6.029000  24.043000
H  6.355000  5.924000  22.502000
H  6.846000  7.497000  23.101000
H  7.208000  8.665000  27.964000
H  7.535000  7.667000  25.777000
H  2.831000  8.601000  27.452000
H  4.863000  9.321000  28.693000
O  3.083000  7.046000  25.142000
C  1.689000  7.211000  25.629000
H  1.428000  8.304000  25.699000
H  1.503000  6.703000  26.626000
H  1.037000  6.744000  24.871000
20
Lattice="25.0 0.0 0.0 0.0 25.0 0.0 0.0 0.0 50.0" Properties=species:S:1:pos:R:3 pbc="F F F" Time = 0.0 Energy= 282.455
C  4.012000  7.485000  25.905000
C  3.839000  8.238000  27.108000
C  4.956000  8.622000  27.915000
C  6.245000  8.383000  27.402000
C  6.435000  7.715000  26.157000
C  5.332000  7.241000  25.413000
O  5.275000  6.509000  24.220000
C  6.513000  6.499000  23.432000
H  7.403000  6.043000  23.828000
H  6.216000  5.791000  22.635000
H  6.841000  7.554000  23.045000
H  7.119000  8.774000  27.897000
H  7.356000  7.590000  25.689000
H  2.837000  8.537000  27.480000
H  4.836000  9.179000  28.866000
O  2.955000  7.135000  25.085000
C  1.589000  7.177000  25.532000
H  1.181000  8.167000  25.642000
H  1.442000  6.569000  26.438000
H  0.990000  6.688000  24.684000
20
Lattice="25.0 0.0 0.0 0.0 25.0 0.0 0.0 0.0 50.0" Properties=species:S:1:pos:R:3 pbc="F F F" Time = 0.0 Energy= 292.42
C  3.706000  7.368000  25.944000