20
Lattice="25.0 0.0 0.0 0.0 25.0 0.0 0.0 0.0 50.0" Properties=species:S:1:pos:R:3 pbc="F F F" Time = 0.0 Energy= 303.214
C  5.774000  4.966000  26.822000
C  5.892000  6.367000  26.786000
C  7.126000  7.035000  27.037000
C  8.283000  6.247000  27.013000
C  8.189000  4.834000  26.808000
C  6.969000  4.188000  26.864000
O  6.793000  2.778000  26.863000
C  7.933000  1.918000  26.777000
H  7.620000  0.890000  26.915000
H  8.413000  2.003000  25.795000
H  8.718000  2.075000  27.607000
H  4.760000  4.543000  26.670000
H  5.068000  7.068000  26.644000
H  9.308000  6.722000  27.028000
H  9.093000  4.295000  26.707000
O  7.054000  8.406000  27.340000
C  8.339000  9.133000  27.223000
H  8.813000  8.838000  26.246000
H  8.104000  10.214000  27.088000
H  9.006000  9.020000  28.108000
20
Lattice="25.0 0.0 0.0 0.0 25.0 0.0 0.0 0.0 50.0" Properties=species:S:1:pos:R:3 pbc="F F F" Time = 0.0 Energy= 307.509
C  5.823000  4.662000  26.944000
C  5.683000  6.043000  26.872000
C  6.805000  6.965000  26.810000
C  8.085000  6.379000  26.764000
C  8.281000  4.955000  26.791000
C  7.138000  4.117000  26.782000
O  7.139000  2.753000  26.562000
C  8.321000  2.013000  26.836000
H  7.993000  0.934000  26.764000
H  9.178000  2.083000  26.116000
H  8.686000  2.278000  27.860000
H  4.979000  3.964000  27.058000
H  4.707000  6.512000  27.106000
H  8.922000  7.046000  26.685000
H  9.355000  4.631000  26.694000
O  6.549000  8.304000  26.787000
C  7.723000  9.121000  27.046000
H  8.361000  9.254000  26.124000
H  7.308000  10.157000  27.285000
H  8.225000  8.809000  27.957000
20
Lattice="25.0 0.0 0.0 0.0 25.0 0.0 0.0 0.0 50.0" Properties=species:S:1:pos:R:3 pbc="F F F" Time = 0.0 Energy= 306.57900000000006
C  6.315000  4.611000  26.977000
C  5.667000  5.816000  27.126000
C  6.441000  6.976000  27.062000
C  7.778000  6.891000  26.661000
C  8.515000  5.695000  26.574000
C  7.748000  4.533000  26.895000
O  8.206000  3.220000  26.970000
C  9.586000  3.005000  27.291000
H  9.834000  1.969000  26.917000
H  10.166000  3.709000  26.669000
H  9.872000  3.226000  28.392000
H  5.794000  3.680000  27.099000
H  4.592000  5.982000  27.257000
H  8.336000  7.818000  26.359000
H  9.638000  5.697000  26.374000
O  5.770000  8.179000  27.277000
C  6.569000  9.314000  27.296000
H  6.974000  9.429000  26.298000
H  5.981000  10.230000  27.664000
H  7.457000  9.134000  27.981000
20
Lattice="25.0 0.0 0.0 0.0 25.0 0.0 0.0 0.0 50.0" Properties=species:S:1:pos:R:3 pbc="F F F" Time = 0.0 Energy= 307.405
C  5.402000  4.654000  27.381000
C  4.900000  5.947000  27.579000
C  5.779000  7.041000  27.457000
C  7.153000  6.756000  27.256000
C  7.689000  5.461000  27.170000
C  6.761000  4.385000  27.146000
O  7.073000  3.018000  27.106000
C  8.530000  2.772000  27.061000
H  8.709000  1.710000  26.904000
H  9.054000  3.245000  26.212000
H  8.882000  3.166000  28.045000
H  4.657000  3.840000  27.370000
H  3.866000  6.153000  27.824000
H  7.802000  7.669000  27.162000
H  8.735000  5.334000  27.017000
O  5.226000  8.280000  27.520000
C  6.048000  9.421000  27.207000
H  6.849000  9.203000  26.481000
H  5.516000  10.271000  26.809000
H  6.471000  9.617000  28.244000
20
Lattice="25.0 0.0 0.0 0.0 25.0 0.0 0.0 0.0 50.0" Properties=species:S:1:pos:R:3 pbc="F F F" Time = 0.0 Energy= 313.752
C  5.852000  4.319000  26.833000
C  5.386000  5.597000  26.645000
C  6.312000  6.695000  26.584000
C  7.713000  6.517000  26.680000
C  8.151000  5.164000  26.806000
C  7.223000  4.117000  26.756000
O  7.546000  2.764000  26.595000
C  8.905000  2.358000  26.972000
H  8.967000  1.252000  26.945000
H  9.675000  2.619000  26.213000
H  9.136000  2.833000  27.899000
H  5.239000  3.404000  26.828000
H  4.318000  5.856000  26.685000
H  8.380000  7.331000  26.693000
H  9.254000  4.992000  26.787000
O  5.607000  7.864000  26.426000
C  6.275000  9.108000  26.126000
H  6.566000  9.285000  25.070000
H  5.585000  9.938000  26.481000
H  7.172000  9.087000  26.773000
20
Lattice="25.0 0.0 0.0 0.0 25.0 0.0 0.0 0.0 50.0" Properties=species:S:1:pos:R:3 pbc="F F F" Time = 0.0 Energy= 317.025
C  5.874000  4.377000  27.063000
C  5.322000  5.678000  26.977000
C  6.202000  6.834000  26.917000
C  7.600000  6.634000  26.961000
C  8.140000  5.291000  26.887000
C  7.268000  4.179000  26.916000
O  7.662000  2.881000  26.580000
C  9.039000  2.532000  26.579000
H  9.114000  1.492000  26.272000
H  9.540000  3.008000  25.682000
H  9.621000  2.777000  27.470000
H  5.221000  3.487000  27.002000
H  4.244000  5.895000  26.919000
H  8.308000  7.556000  27.004000
H  9.236000  5.200000  26.776000
O  5.571000  8.074000  26.875000
C  6.252000  9.299000  26.590000
H  6.443000  9.394000  25.449000
H  5.501000  10.040000  26.764000
H  7.202000  9.521000  27.133000
20
Lattice="25.0 0.0 0.0 0.0 25.0 0.0 0.0 0.0 50.0" Properties=species:S:1:pos:R:3 pbc="F F F" Time = 0.0 Energy= 308.759
C  5.756000  4.544000  26.875000
C  5.193000  5.806000  26.979000
C  6.045000  6.942000  26.977000
C  7.453000  6.759000  26.887000
C  8.040000  5.465000  26.813000
C  7.158000  4.373000  26.786000
O  7.545000  3.002000  26.800000
C  8.860000  2.678000  26.241000
H  8.990000  1.572000  26.359000
H  8.993000  3.079000  25.226000
H  9.674000  3.122000  26.845000
H  5.101000  3.674000  26.705000
H  4.141000  5.970000  27.184000
H  8.083000  7.611000  26.830000
H  9.142000  5.428000  26.731000
O  5.414000  8.164000  27.051000
C  6.271000  9.266000  26.621000
H  6.547000  8.995000  25.607000
H  5.702000  10.242000  26.704000
H  7.234000  9.383000  27.193000
20
Lattice="25.0 0.0 0.0 0.0 25.0 0.0 0.0 0.0 50.0" Properties=species:S:1:pos:R:3 pbc="F F F" Time = 0.0 Energy= 308.029
C  6.036000  4.755000  27.316000
C  5.547000  6.071000  27.299000
C  6.413000  7.194000  27.145000
C  7.814000  6.972000  26.991000
C  8.259000  5.665000  26.902000
C  7.396000  4.561000  27.102000
O  7.761000  3.255000  26.855000
C  9.156000  2.930000  26.747000
H  9.274000  1.816000  26.927000
H  9.467000  3.377000  25.758000
H  9.764000  3.445000  27.586000
H  5.375000  3.923000  27.516000
H  4.473000  6.288000  27.512000
H  8.502000  7.809000  26.908000
H  9.311000  5.535000  26.759000
O  5.877000  8.446000  27.308000
C  6.379000  9.540000  26.577000
H  6.048000  9.456000  25.469000
H  5.869000  10.376000  27.030000
H  7.479000  9.659000  26.749000
20
Lattice="25.0 0.0 0.0 0.0 25.0 0.0 0.0 0.0 50.0" Properties=species:S:1:pos:R:3 pbc="F F F" Time = 0.0 Energy= 309.282
C  6.032000  4.758000  27.346000
C  5.533000  6.066000  27.275000
C  6.386000  7.182000  27.137000
C  7.769000  6.947000  26.982000
C  8.273000  5.633000  26.928000
C  7.415000  4.554000  27.068000
O  7.779000  3.235000  26.874000
C  9.132000  2.924000  26.730000
H  9.221000  1.858000  26.828000
H  9.466000  3.348000  25.795000
H  9.784000  3.327000  27.477000
H  5.362000  3.876000  27.505000
H  4.495000  6.336000  27.465000
H  8.530000  7.748000  26.858000
H  9.363000  5.490000  26.684000
O  5.822000  8.442000  27.292000
C  6.395000  9.585000  26.527000
H  6.041000  9.364000  25.526000
H  5.898000  10.492000  27.019000
H  7.500000  9.686000  26.583000
20
Lattice="25.0 0.0 0.0 0.0 25.0 0.0 0.0 0.0 50.0" Properties=species:S:1:pos:R:3 pbc="F F F" Time = 0.0 Energy= 311.395
C  5.698000  4.493000  26.999000
C  5.299000  5.830000  27.066000
C  6.250000  6.834000  26.838000
C  7.601000  6.508000  26.798000
C  8.054000  5.134000  26.846000
C  7.074000  4.093000  26.972000
O  7.302000  2.745000  27.159000
C  8.612000  2.285000  26.898000
H  8.711000  1.161000  26.819000
H  9.044000  2.692000  25.951000
H  9.266000  2.647000  27.761000
H  4.947000  3.664000  27.166000
H  4.275000  6.166000  27.107000
H  8.362000  7.274000  26.648000
H  9.114000  5.008000  26.752000
O  5.690000  8.048000  26.754000
C  6.569000  9.168000  26.442000
H  6.691000  9.285000  25.328000
H  5.971000  10.051000  26.756000
H  7.542000  9.092000  27.032000
20
Lattice="25.0 0.0 0.0 0.0 25.0 0.0 0.0 0.0 50.0" Properties=species:S:1:pos:R:3 pbc="F F F" Time = 0.0 Energy= 312.141
C  5.617000  4.326000  26.814000
C  5.374000  5.702000  26.986000
C  6.442000  6.591000  26.972000
C  7.774000  6.102000  26.882000
C  8.032000  4.712000  26.678000
C  6.948000  3.846000  26.596000
O  7.091000  2.515000  26.423000
C  8.411000  2.018000  26.202000
H  8.185000  1.026000  25.683000
H  9.061000  2.627000  25.462000
H  9.012000  1.834000  27.182000
H  4.805000  3.645000  26.635000
H  4.354000  6.093000  27.196000
H  8.679000  6.753000  26.933000
H  9.115000  4.380000  26.644000
O  6.026000  7.932000  26.935000
C  7.010000  8.959000  26.598000
H  7.785000  8.620000  25.854000
H  6.489000  9.875000  26.245000
H  7.597000  9.115000  27.550000
20
Lattice="25.0 0.0 0.0 0.0 25.0 0.0 0.0 0.0 50.0" Properties=species:S:1:pos:R:3 pbc="F F F" Time = 0.0 Energy= 301.31
C  6.017000  4.582000  27.328000
C  5.620000  5.886000  27.139000
C  6.600000  6.838000  26.898000
C  7.979000  6.500000  26.886000
C  8.373000  5.221000  27.199000
C  7.420000  4.191000  27.330000
O  7.705000  2.848000  27.476000
C  9.025000  2.394000  27.263000
H  9.066000  1.352000  27.552000
H  9.394000  2.545000  26.254000
H  9.733000  2.881000  27.904000
H  5.284000  3.745000  27.416000
H  4.587000  6.175000  27.144000
H  8.738000  7.276000  26.718000
H  9.459000  4.967000  27.119000
O  6.102000  8.095000  26.560000
C  7.042000  9.073000  26.144000
H  7.855000  8.874000  25.415000
H  6.358000  9.942000  25.828000
H  7.656000  9.454000  26.991000
20
Lattice="25.0 0.0 0.0 0.0 25.0 0.0 0.0 0.0 50.0" Properties=species:S:1:pos:R:3 pbc="F F F" Time = 0.0 Energy= 310.23
C  5.577000  4.919000  26.972000
C  4.984000  6.178000  26.795000
C  5.789000  7.338000  26.614000
C  7.183000  7.251000  26.564000
C  7.769000  5.956000  26.789000
C  6.995000  4.770000  26.869000
O  7.444000  3.474000  26.792000
C  8.933000  3.336000  26.649000
H  9.132000  2.247000  26.576000
H  9.227000  3.903000  25.740000
H  9.380000  3.832000  27.536000
H  4.970000  3.981000  26.995000
H  3.863000  6.235000  26.971000
H  7.840000  8.128000  26.450000
H  8.896000  5.872000  26.761000
O  5.104000  8.506000  26.433000
C  5.768000  9.710000  26.572000
H  6.410000  9.915000  25.659000
H  4.970000  10.501000  26.481000
H  6.211000  9.881000  27.619000
20
Lattice="25.0 0.0 0.0 0.0 25.0 0.0 0.0 0.0 50.0" Properties=species:S:1:pos:R:3 pbc="F F F" Time = 0.0 Energy= 320.818
C  5.860000  4.505000  27.285000
C  5.309000  5.817000  27.369000
C  6.143000  6.894000  27.029000
C  7.530000  6.736000  26.800000
C  8.078000  5.396000  26.752000
C  7.230000  4.312000  27.040000
O  7.558000  2.994000  26.884000
C  9.019000  2.759000  26.847000
H  9.085000  1.693000  27.078000
H  9.375000  2.941000  25.840000
H  9.558000  3.413000  27.569000
H  5.258000  3.606000  27.441000
H  4.194000  5.911000  27.447000
H  8.265000  7.513000  26.660000
H  9.164000  5.191000  26.707000
O  5.549000  8.172000  27.131000
C  6.235000  9.324000  26.477000
H  6.645000  9.004000  25.529000
H  5.531000  10.142000  26.313000
H  6.990000  9.745000  27.144000
20
Lattice="25.0 0.0 0.0 0.0 25.0 0.0 0.0 0.0 50.0" Properties=species:S:1:pos:R:3 pbc="F F F" Time = 0.0 Energy= 313.85999999999996
C  5.967000  4.445000  26.731000
C  5.675000  5.848000  26.800000
C  6.693000  6.832000  26.900000
C  8.035000  6.430000  26.993000
C  8.366000  5.040000  26.880000
C  7.352000  4.073000  26.688000
O  7.570000  2.659000  26.692000
C  8.899000  2.255000  26.967000
H  9.036000  1.193000  26.980000
H  9.578000  2.692000  26.257000
H  9.315000  2.649000  27.906000
H  5.169000  3.723000  26.683000
H  4.619000  6.196000  26.952000
H  8.820000  7.135000  26.984000
H  9.445000  4.771000  26.805000
O  6.262000  8.127000  26.754000
C  7.230000  9.156000  26.633000
H  7.935000  9.011000  25.827000
H  6.644000  10.065000  26.378000
H  7.675000  9.346000  27.616000
20
Lattice="25.0 0.0 0.0 0.0 25.0 0.0 0.0 0.0 50.0" Properties=species:S:1:pos:R:3 pbc="F F F" Time = 0.0 Energy= 315.053
C  5.917000  4.537000  26.889000
C  5.621000  5.928000  26.961000
C  6.707000  6.880000  27.018000
C  8.076000  6.416000  26.947000
C  8.311000  5.016000  26.996000
C  7.264000  4.054000  26.936000
O  7.410000  2.713000  26.787000
C  8.767000  2.207000  26.696000
H  8.724000  1.157000  26.441000
H  9.432000  2.742000  25.993000
H  9.367000  2.236000  27.611000
H  5.129000  3.817000  26.748000
H  4.584000  6.355000  27.029000
H  8.895000  7.051000  26.737000
H  9.348000  4.610000  26.996000
O  6.287000  8.239000  27.096000
C  7.242000  9.277000  26.795000
H  7.938000  9.137000  25.925000
H  6.751000  10.246000  26.613000
H  7.824000  9.395000  27.732000
20
Lattice="25.0 0.0 0.0 0.0 25.0 0.0 0.0 0.0 50.0" Properties=species:S:1:pos:R:3 pbc="F F F" Time = 0.0 Energy= 316.695
C  5.850000  4.590000  27.428000
C  5.549000  5.969000  27.394000
C  6.651000  6.871000  27.143000
C  7.964000  6.430000  26.938000
C  8.189000  5.024000  26.809000
C  7.149000  4.121000  27.146000
O  7.301000  2.723000  27.218000
C  8.620000  2.266000  26.873000
H  8.739000  1.173000  26.792000
H  9.035000  2.687000  25.970000
H  9.346000  2.604000  27.623000
H  5.076000  3.834000  27.758000
H  4.554000  6.444000  27.472000
H  8.828000  7.155000  26.926000
H  9.194000  4.640000  26.677000
O  6.287000  8.202000  27.100000
C  7.267000  9.183000  26.925000
H  7.745000  9.123000  25.920000
H  6.748000  10.144000  27.005000
H  8.110000  9.282000  27.679000
20
Lattice="25.0 0.0 0.0 0.0 25.0 0.0 0.0 0.0 50.0" Properties=species:S:1:pos:R:3 pbc="F F F" Time = 0.0 Energy= 319.35699999999997
C  5.765000  4.778000  27.495000
C  5.591000  6.160000  27.532000
C  6.668000  7.010000  26.999000
C  7.963000  6.466000  26.798000
C  8.185000  5.081000  27.013000
C  7.072000  4.266000  27.269000
O  7.253000  2.857000  27.294000
C  8.566000  2.346000  27.062000
H  8.449000  1.284000  27.290000
H  8.883000  2.435000  26.016000
H  9.379000  2.788000  27.633000
H  5.014000  3.997000  27.795000
H  4.589000  6.551000  27.758000
H  8.814000  7.120000  26.389000
H  9.143000  4.613000  26.801000
O  6.256000  8.307000  26.827000
C  7.189000  9.257000  26.372000
H  7.680000  8.811000  25.493000
H  6.660000  10.197000  26.053000
H  8.009000  9.591000  27.020000
20
Lattice="25.0 0.0 0.0 0.0 25.0 0.0 0.0 0.0 50.0" Properties=species:S:1:pos:R:3 pbc="F F F" Time = 0.0 Energy= 322.40600000000006
C  5.745000  4.690000  27.323000
C  5.476000  6.039000  27.012000
C  6.460000  7.033000  26.855000
C  7.811000  6.644000  26.923000
C  8.159000  5.250000  26.957000
C  7.112000  4.313000  27.140000
O  7.389000  2.933000  27.276000
C  8.798000  2.548000  27.224000
H  8.705000  1.430000  27.257000
H  9.362000  2.849000  26.275000
H  9.317000  2.827000  28.177000
H  4.955000  3.854000  27.395000
H  4.435000  6.456000  27.036000
H  8.609000  7.445000  26.915000
H  9.180000  4.957000  26.804000
O  5.991000  8.298000  26.667000
C  6.720000  9.314000  25.911000
H  6.661000  8.966000  24.885000
H  6.078000  10.225000  25.918000
H  7.709000  9.453000  26.317000
20
Lattice="25.0 0.0 0.0 0.0 25.0 0.0 0.0 0.0 50.0" Properties=species:S:1:pos:R:3 pbc="F F F" Time = 0.0 Energy= 312.355
C  5.794000  4.671000  27.388000
C  5.188000  5.887000  27.087000
C  5.961000  7.003000  26.634000
C  7.351000  6.848000  26.530000
C  8.017000  5.566000  26.678000
C  7.161000  4.442000  26.998000
O  7.601000  3.124000  27.180000
C  9.042000  2.925000  27.052000
H  9.172000  1.845000  26.729000
H  9.462000  3.520000  26.196000
H  9.588000  3.212000  27.990000
H  5.275000  3.766000  27.790000
H  4.148000  6.001000  27.430000
H  7.999000  7.684000  26.324000
H  9.063000  5.484000  26.376000
O  5.320000  8.246000  26.389000
C  6.121000  9.384000  26.202000
H  6.863000  9.302000  25.357000
H  5.504000  10.276000  26.160000
H  6.758000  9.521000  27.106000
20
Lattice="25.0 0.0 0.0 0.0 25.0 0.0 0.0 0.0 50.0" Properties=species:S:1:pos:R:3 pbc="F F F" Time = 0.0 Energy= 322.52
C  5.662000  4.451000  27.007000
C  4.984000  5.715000  26.927000
C  5.852000  6.849000  27.024000
C  7.292000  6.771000  27.027000
C  7.882000  5.479000  26.956000
C  7.040000  4.323000  26.976000
O  7.625000  3.034000  26.938000
C  8.984000  2.918000  26.600000
H  9.175000  1.838000  26.443000
H  9.246000  3.546000  25.730000
H  9.700000  3.321000  27.366000
H  5.118000  3.493000  26.892000
H  3.878000  5.799000  26.832000
H  7.895000  7.675000  27.158000
H  8.910000  5.181000  27.032000
O  5.223000  8.108000  26.929000
C  5.978000  9.392000  27.173000
H  6.807000  9.333000  26.446000
H  5.285000  10.261000  26.932000
H  6.279000  9.503000  28.222000
20
Lattice="25.0 0.0 0.0 0.0 25.0 0.0 0.0 0.0 50.0" Properties=species:S:1:pos:R:3 pbc="F F F" Time = 0.0 Energy= 305.244
C  5.597000  4.508000  27.484000
C  5.195000  5.796000  27.648000
C  6.084000  6.905000  27.368000
C  7.448000  6.532000  27.122000
C  7.862000  5.165000  27.089000
C  6.909000  4.154000  27.240000
O  7.234000  2.792000  27.235000
C  8.634000  2.452000  26.875000
H  8.615000  1.425000  26.439000
H  9.113000  3.266000  26.227000
H  9.285000  2.410000  27.811000
H  4.866000  3.704000  27.670000
H  4.108000  5.940000  27.817000
H  8.249000  7.255000  27.178000
H  8.943000  4.966000  27.012000
O  5.617000  8.149000  27.499000
C  6.338000  9.176000  26.966000
H  6.883000  8.879000  26.080000
H  5.749000  10.111000  26.716000
H  7.041000  9.539000  27.746000
20
Lattice="25.0 0.0 0.0 0.0 25.0 0.0 0.0 0.0 50.0" Properties=species:S:1:pos:R:3 pbc="F F F" Time = 0.0 Energy= 310.97
C  5.935000  4.421000  26.989000
C  5.553000  5.794000  26.932000
C  6.586000  6.776000  26.912000
C  7.953000  6.392000  26.924000
C  8.289000  5.024000  26.991000
C  7.272000  4.018000  26.938000
O  7.489000  2.608000  27.017000
C  8.834000  2.217000  26.994000
H  8.901000  1.148000  26.673000
H  9.301000  2.810000  26.166000
H  9.301000  2.513000  27.975000
H  5.095000  3.659000  27.126000
H  4.525000  6.157000  27.058000
H  8.729000  7.128000  26.888000
H  9.403000  4.778000  26.877000
O  6.108000  8.098000  26.963000
C  7.082000  9.209000  26.916000
H  7.771000  8.930000  26.138000
H  6.579000  10.153000  26.695000
H  7.668000  9.258000  27.857000
20
Lattice="25.0 0.0 0.0 0.0 25.0 0.0 0.0 0.0 50.0" Properties=species:S:1:pos:R:3 pbc="F F F" Time = 0.0 Energy= 303.315
C  5.986000  4.406000  26.906000
C  5.654000  5.746000  27.059000
C  6.620000  6.753000  27.091000
C  8.019000  6.370000  27.127000
C  8.354000  5.008000  27.004000
C  7.315000  4.054000  26.929000
O  7.530000  2.653000  26.610000
C  8.901000  2.104000  26.576000
H  8.802000  1.004000  26.503000
H  9.499000  2.378000  25.703000
H  9.486000  2.183000  27.501000
H  5.283000  3.614000  26.856000
H  4.604000  6.022000  27.044000
H  8.753000  7.161000  27.002000
H  9.414000  4.697000  26.845000
O  6.135000  8.038000  27.061000
C  7.136000  9.037000  26.873000
H  7.683000  9.074000  25.875000
H  6.545000  9.940000  26.883000
H  7.912000  9.031000  27.711000
20
Lattice="25.0 0.0 0.0 0.0 25.0 0.0 0.0 0.0 50.0" Properties=species:S:1:pos:R:3 pbc="F F F" Time = 0.0 Energy= 311.501
C  6.028000  4.209000  27.148000
C  5.538000  5.532000  27.033000
C  6.536000  6.626000  26.904000
C  7.922000  6.272000  26.860000
C  8.345000  4.899000  27.008000
C  7.389000  3.855000  27.058000
O  7.691000  2.475000  26.900000
C  9.062000  2.208000  27.175000
H  9.043000  1.096000  27.276000
H  9.642000  2.561000  26.295000
H  9.501000  2.722000  28.094000
H  5.239000  3.477000  27.144000
H  4.501000  5.774000  27.170000
H  8.770000  6.961000  26.622000
H  9.381000  4.763000  26.800000
O  5.966000  7.881000  26.781000
C  6.908000  8.878000  26.295000
H  7.401000  8.578000  25.367000
H  6.212000  9.724000  26.117000
H  7.548000  9.060000  27.131000
20
Lattice="25.0 0.0 0.0 0.0 25.0 0.0 0.0 0.0 50.0" Properties=species:S:1:pos:R:3 pbc="F F F" Time = 0.0 Energy= 301.709
C  5.511000  4.230000  26.928000
C  5.065000  5.553000  27.061000
C  6.005000  6.612000  26.968000
C  7.373000  6.291000  27.282000
C  7.741000  4.898000  27.293000
C  6.859000  3.884000  27.005000
O  7.187000  2.545000  26.742000
C  8.578000  2.240000  26.616000
H  8.479000  1.158000  26.465000
H  9.183000  2.851000  25.917000
H  9.035000  2.425000  27.609000
H  4.755000  3.395000  26.851000
H  4.011000  5.875000  27.015000
H  8.157000  7.094000  27.320000
H  8.848000  4.657000  27.418000
O  5.449000  7.869000  26.737000
C  6.280000  9.005000  27.081000
H  7.052000  9.203000  26.256000
H  5.618000  9.925000  27.000000
H  6.781000  9.022000  28.111000
20
Lattice="25.0 0.0 0.0 0.0 25.0 0.0 0.0 0.0 50.0" Properties=species:S:1:pos:R:3 pbc="F F F" Time = 0.0 Energy= 316.256
C  5.329000  4.151000  26.884000
C  4.780000  5.412000  26.822000
C  5.622000  6.534000  26.691000
C  7.017000  6.408000  26.692000
C  7.637000  5.138000  26.680000
C  6.722000  3.983000  26.881000
O  7.144000  2.668000  26.930000
C  8.555000  2.350000  26.587000
H  8.450000  1.287000  26.278000
H  9.031000  2.968000  25.766000
H  9.236000  2.502000  27.459000
H  4.660000  3.296000  27.113000
H  3.689000  5.561000  26.934000
H  7.704000  7.201000  26.847000
H  8.736000  5.077000  26.683000
O  5.026000  7.767000  26.737000
C  5.729000  8.926000  26.350000
H  6.293000  8.809000  25.396000
H  5.033000  9.736000  26.246000
H  6.481000  9.251000  27.115000
20
Lattice="25.0 0.0 0.0 0.0 25.0 0.0 0.0 0.0 50.0" Properties=species:S:1:pos:R:3 pbc="F F F" Time = 0.0 Energy= 323.092
C  5.318000  4.168000  26.984000
C  4.771000  5.446000  26.809000
C  5.651000  6.551000  26.700000
C  7.051000  6.405000  26.630000
C  7.575000  5.093000  26.682000
C  6.748000  4.021000  26.835000
O  7.164000  2.703000  26.937000
C  8.550000  2.401000  26.566000
H  8.560000  1.319000  26.318000
H  8.969000  3.089000  25.802000
H  9.142000  2.519000  27.486000
H  4.683000  3.208000  27.013000
H  3.647000  5.515000  26.766000
H  7.620000  7.354000  26.698000
H  8.673000  4.960000  26.647000
O  5.057000  7.749000  26.641000
C  5.782000  8.989000  26.379000
H  6.292000  8.775000  25.443000
H  4.939000  9.667000  26.179000
H  6.401000  9.255000  27.267000
20
Lattice="25.0 0.0 0.0 0.0 25.0 0.0 0.0 0.0 50.0" Properties=species:S:1:pos:R:3 pbc="F F F" Time = 0.0 Energy= 302.30899999999997
C  5.370000  4.230000  27.027000
C  4.805000  5.508000  26.945000
C  5.660000  6.667000  26.634000
C  7.037000  6.458000  26.671000
C  7.607000  5.166000  26.787000
C  6.774000  4.045000  26.815000
O  7.230000  2.687000  26.787000
C  8.673000  2.536000  26.693000
H  8.877000  1.442000  26.597000
H  8.971000  2.991000  25.714000
H  9.237000  3.059000  27.518000
H  4.698000  3.410000  27.062000
H  3.748000  5.752000  27.100000
H  7.728000  7.313000  26.685000
H  8.673000  4.930000  26.808000
O  5.043000  7.844000  26.403000
C  5.896000  9.027000  26.491000
H  6.720000  9.151000  25.791000
H  5.246000  9.889000  26.313000
H  6.325000  9.174000  27.473000
20
Lattice="25.0 0.0 0.0 0.0 25.0 0.0 0.0 0.0 50.0" Properties=species:S:1:pos:R:3 pbc="F F F" Time = 0.0 Energy= 311.289
C  5.481000  4.277000  26.969000
C  4.917000  5.577000  26.938000
C  5.768000  6.746000  26.854000
C  7.166000  6.563000  26.937000
C  7.765000  5.246000  26.939000
C  6.924000  4.138000  26.936000
O  7.329000  2.777000  26.820000
C  8.753000  2.579000  26.817000
H  8.944000  1.511000  26.993000
H  9.207000  2.839000  25.834000
H  9.177000  3.093000  27.692000
H  4.882000  3.362000  26.772000
H  3.848000  5.639000  26.748000
H  7.783000  7.423000  26.969000
H  8.837000  5.379000  26.873000
O  5.090000  7.941000  26.757000
C  5.932000  9.074000  26.620000
H  6.684000  8.904000  25.766000
H  5.407000  10.019000  26.433000
H  6.534000  9.188000  27.637000
20
Lattice="25.0 0.0 0.0 0.0 25.0 0.0 0.0 0.0 50.0" Properties=species:S:1:pos:R:3 pbc="F F F" Time = 0.0 Energy= 312.355
C  6.279000  5.040000  27.295000
C  5.821000  6.360000  27.276000
C  6.704000  7.405000  26.898000
C  8.107000  7.093000  26.671000
C  8.542000  5.733000  26.649000
C  7.591000  4.700000  26.891000
O  7.882000  3.347000  26.819000
C  9.338000  2.979000  26.934000
H  9.406000  1.888000  27.107000
H  9.934000  3.197000  26.015000
H  9.811000  3.423000  27.829000
H  5.609000  4.203000  27.598000
H  4.813000  6.515000  27.654000
H  8.810000  7.860000  26.403000
H  9.548000  5.535000  26.362000
O  6.229000  8.677000  26.772000
C  6.998000  9.821000  26.491000
H  7.292000  9.787000  25.451000
H  6.379000  10.764000  26.652000
H  7.937000  9.912000  27.057000
20
Lattice="25.0 0.0 0.0 0.0 25.0 0.0 0.0 0.0 50.0" Properties=species:S:1:pos:R:3 pbc="F F F" Time = 0.0 Energy= 311.289
C  5.864000  4.786000  26.854000
C  5.557000  6.153000  26.876000
C  6.643000  7.088000  26.724000
C  7.983000  6.675000  26.709000
C  8.273000  5.286000  26.683000
C  7.261000  4.354000  26.726000
O  7.491000  2.996000  26.742000
C  8.872000  2.616000  26.724000
H  8.911000  1.530000  26.505000
H  9.331000  3.111000  25.835000
H  9.347000  2.827000  27.719000
H  5.046000  4.046000  27.005000
H  4.513000  6.463000  26.832000
H  8.856000  7.382000  26.652000
H  9.296000  4.877000  26.884000
O  6.226000  8.400000  26.673000
C  7.330000  9.401000  26.668000
H  8.035000  9.274000  25.830000
H  6.826000  10.310000  26.538000
H  7.864000  9.466000  27.644000
20
Lattice="25.0 0.0 0.0 0.0 25.0 0.0 0.0 0.0 50.0" Properties=species:S:1:pos:R:3 pbc="F F F" Time = 0.0 Energy= 315.38
C  5.762000  4.544000  26.714000
C  5.402000  5.874000  26.868000
C  6.402000  6.829000  26.947000
C  7.798000  6.497000  27.090000
C  8.152000  5.119000  26.940000
C  7.110000  4.127000  26.705000
O  7.338000  2.800000  26.522000
C  8.645000  2.308000  26.582000
H  8.616000  1.207000  26.515000
H  9.357000  2.736000  25.837000
H  9.043000  2.677000  27.556000
H  4.992000  3.758000  26.653000
H  4.397000  6.125000  27.171000
H  8.607000  7.263000  27.261000
H  9.219000  4.860000  26.974000
O  5.975000  8.129000  27.197000
C  6.809000  9.227000  26.626000
H  7.085000  9.046000  25.637000
H  6.066000  10.069000  26.594000
H  7.647000  9.475000  27.227000
20
Lattice="25.0 0.0 0.0 0.0 25.0 0.0 0.0 0.0 50.0" Properties=species:S:1:pos:R:3 pbc="F F F" Time = 0.0 Energy= 311.608
C  5.531000  4.242000  27.110000
C  5.124000  5.576000  27.281000
C  6.112000  6.604000  27.346000
C  7.454000  6.296000  27.089000
C  7.895000  4.968000  26.934000
C  6.946000  3.948000  26.923000
O  7.242000  2.606000  26.750000
C  8.594000  2.237000  26.385000
H  8.610000  1.135000  26.238000
H  9.006000  2.737000  25.481000
H  9.277000  2.546000  27.220000
H  4.807000  3.391000  26.865000
H  4.029000  5.677000  27.247000
H  8.229000  7.106000  26.987000
H  8.955000  4.748000  26.816000
O  5.555000  7.863000  27.410000
C  6.417000  9.019000  27.318000
H  7.095000  8.863000  26.435000
H  5.671000  9.826000  27.078000
H  6.917000  9.118000  28.328000
20
Lattice="25.0 0.0 0.0 0.0 25.0 0.0 0.0 0.0 50.0" Properties=species:S:1:pos:R:3 pbc="F F F" Time = 0.0 Energy= 310.1240000000001
C  5.602000  4.149000  27.355000
C  5.029000  5.395000  27.378000
C  5.886000  6.474000  27.292000
C  7.279000  6.371000  26.892000
C  7.818000  5.033000  26.852000
C  6.973000  3.908000  27.095000
O  7.301000  2.576000  26.962000
C  8.698000  2.189000  27.210000
H  8.671000  1.077000  27.104000
H  9.392000  2.654000  26.459000
H  8.990000  2.537000  28.250000
H  4.958000  3.286000  27.251000
H  3.959000  5.519000  27.514000
H  7.934000  7.172000  26.725000
H  8.891000  4.859000  26.589000
O  5.263000  7.712000  27.391000
C  6.123000  8.882000  27.341000
H  6.595000  8.926000  26.317000
H  5.493000  9.750000  27.431000
H  6.908000  8.851000  28.168000
20
Lattice="25.0 0.0 0.0 0.0 25.0 0.0 0.0 0.0 50.0" Properties=species:S:1:pos:R:3 pbc="F F F" Time = 0.0 Energy= 317.799
C  5.538000  4.163000  27.334000
C  4.916000  5.434000  27.253000
C  5.739000  6.664000  27.143000
C  7.092000  6.527000  27.315000
C  7.793000  5.279000  27.408000
C  6.965000  4.095000  27.284000
O  7.417000  2.781000  27.277000
C  8.744000  2.670000  26.677000
H  8.884000  1.591000  26.433000
H  8.790000  3.233000  25.704000
H  9.500000  2.882000  27.468000
H  4.975000  3.215000  27.469000
H  3.832000  5.507000  27.456000
H  7.684000  7.380000  27.249000
H  8.882000  5.261000  27.557000
O  4.971000  7.788000  26.902000
C  5.696000  8.949000  26.436000
H  6.142000  8.608000  25.482000
H  4.999000  9.741000  26.296000
H  6.435000  9.256000  27.232000
20
Lattice="25.0 0.0 0.0 0.0 25.0 0.0 0.0 0.0 50.0" Properties=species:S:1:pos:R:3 pbc="F F F" Time = 0.0 Energy= 309.282
C  5.656000  4.699000  27.218000
C  5.324000  6.049000  27.265000
C  6.194000  7.084000  26.883000
C  7.553000  6.767000  26.540000
C  7.881000  5.390000  26.468000
C  6.907000  4.379000  26.777000
O  7.150000  3.039000  26.538000
C  8.525000  2.543000  26.635000
H  8.509000  1.482000  26.930000
H  9.125000  2.636000  25.713000
H  9.023000  3.059000  27.470000
H  4.913000  3.936000  27.487000
H  4.335000  6.348000  27.610000
H  8.345000  7.553000  26.467000
H  8.934000  5.106000  26.384000
O  5.681000  8.325000  26.967000
C  6.408000  9.508000  26.656000
H  7.036000  9.542000  25.683000
H  5.598000  10.200000  26.570000
H  7.063000  9.875000  27.494000
20
Lattice="25.0 0.0 0.0 0.0 25.0 0.0 0.0 0.0 50.0" Properties=species:S:1:pos:R:3 pbc="F F F" Time = 0.0 Energy= 306.785
C  6.251000  4.632000  27.309000