20
Lattice="25.0 0.0 0.0 0.0 25.0 0.0 0.0 0.0 50.0" Properties=species:S:1:pos:R:3 pbc="F F F" Time = 0.0 Energy= 310.335
H  5.177000  8.488000  6.343000
C  4.716000  8.332000  7.313000
C  4.239000  9.402000  8.060000
O  4.151000  10.690000  7.533000
C  3.722000  9.199000  9.376000
H  3.269000  10.022000  9.863000
C  3.864000  8.012000  10.025000
H  3.434000  7.858000  10.986000
C  4.460000  6.907000  9.285000
C  4.894000  7.096000  7.950000
H  5.342000  6.273000  7.325000
O  4.757000  5.716000  9.821000
C  4.532000  5.548000  11.215000
H  5.243000  6.203000  11.745000
H  3.449000  5.715000  11.485000
H  4.911000  4.575000  11.474000
C  4.967000  11.001000  6.382000
H  4.453000  10.410000  5.616000
H  4.977000  12.126000  6.298000
H  5.928000  10.603000  6.523000
20
Lattice="25.0 0.0 0.0 0.0 25.0 0.0 0.0 0.0 50.0" Properties=species:S:1:pos:R:3 pbc="F F F" Time = 0.0 Energy= 307.717
H  4.687000  6.865000  5.847000
C  4.383000  6.905000  6.913000
C  4.314000  8.112000  7.642000
O  4.483000  9.315000  6.918000
C  4.102000  8.199000  9.020000
H  4.118000  9.190000  9.553000
C  3.989000  7.047000  9.785000
H  3.704000  7.196000  10.823000
C  4.016000  5.792000  9.027000
C  4.227000  5.700000  7.645000
H  4.450000  4.749000  7.183000
O  4.008000  4.576000  9.644000
C  3.981000  4.573000  11.081000
H  4.961000  4.810000  11.481000
H  3.123000  5.158000  11.506000
H  3.911000  3.526000  11.349000
C  5.772000  9.511000  6.340000
H  5.653000  9.460000  5.190000
H  6.071000  10.611000  6.637000
H  6.463000  8.662000  6.541000
20
Lattice="25.0 0.0 0.0 0.0 25.0 0.0 0.0 0.0 50.0" Properties=species:S:1:pos:R:3 pbc="F F F" Time = 0.0 Energy= 304.429
H  4.770000  7.241000  6.020000
C  4.584000  7.198000  7.124000
C  4.671000  8.425000  7.888000
O  4.637000  9.666000  7.240000
C  4.492000  8.355000  9.276000
H  4.332000  9.251000  9.899000
C  4.165000  7.126000  9.909000
H  3.869000  7.257000  10.913000
C  4.103000  5.986000  9.149000
C  4.326000  6.006000  7.769000
H  4.183000  5.078000  7.270000
O  3.792000  4.741000  9.672000
C  3.796000  4.601000  11.149000
H  4.603000  5.252000  11.541000
H  2.866000  4.959000  11.633000
H  3.844000  3.583000  11.294000
C  5.368000  9.742000  6.036000
H  4.664000  9.345000  5.211000
H  5.547000  10.777000  5.855000
H  6.334000  9.315000  6.182000
20
Lattice="25.0 0.0 0.0 0.0 25.0 0.0 0.0 0.0 50.0" Properties=species:S:1:pos:R:3 pbc="F F F" Time = 0.0 Energy= 308.029
H  5.598000  7.724000  6.595000
C  5.213000  7.802000  7.591000
C  5.095000  8.975000  8.348000
O  5.175000  10.356000  7.886000
C  4.757000  8.910000  9.726000
H  4.513000  9.838000  10.255000
C  4.592000  7.657000  10.356000
H  4.212000  7.745000  11.393000
C  4.744000  6.497000  9.593000
C  5.025000  6.565000  8.238000
H  5.043000  5.626000  7.599000
O  4.484000  5.191000  10.066000
C  4.211000  4.936000  11.498000
H  5.020000  5.340000  12.202000
H  3.352000  5.531000  11.821000
H  3.928000  3.929000  11.565000
C  5.402000  10.506000  6.500000
H  4.803000  9.975000  5.850000
H  5.297000  11.566000  6.243000
H  6.448000  10.315000  6.220000
20
Lattice="25.0 0.0 0.0 0.0 25.0 0.0 0.0 0.0 50.0" Properties=species:S:1:pos:R:3 pbc="F F F" Time = 0.0 Energy= 308.133
H  4.467000  8.277000  6.312000
C  4.635000  7.938000  7.322000
C  4.777000  8.952000  8.294000
O  4.766000  10.269000  7.887000
C  4.787000  8.640000  9.697000
H  4.625000  9.442000  10.479000
C  4.779000  7.262000  10.060000
H  4.859000  6.961000  11.109000
C  4.743000  6.269000  9.084000
C  4.653000  6.607000  7.719000
H  4.747000  5.734000  7.011000
O  4.829000  4.915000  9.431000
C  5.299000  4.637000  10.747000
H  6.296000  5.129000  10.951000
H  4.585000  4.928000  11.529000
H  5.388000  3.601000  10.892000
C  5.642000  10.670000  6.730000
H  5.234000  10.229000  5.808000
H  5.673000  11.794000  6.749000
H  6.623000  10.150000  6.946000
20
Lattice="25.0 0.0 0.0 0.0 25.0 0.0 0.0 0.0 50.0" Properties=species:S:1:pos:R:3 pbc="F F F" Time = 0.0 Energy= 309.073
H  5.622000  8.203000  6.257000
C  5.431000  8.201000  7.369000
C  5.093000  9.414000  7.992000
O  5.111000  10.642000  7.346000
C  4.806000  9.456000  9.396000
H  4.640000  10.352000  9.922000
C  4.800000  8.263000  10.101000
H  4.425000  8.190000  11.130000
C  5.131000  7.005000  9.426000
C  5.411000  7.000000  8.078000
H  5.508000  6.058000  7.594000
O  4.870000  5.745000  9.990000
C  4.522000  5.647000  11.346000
H  5.359000  5.924000  11.972000
H  3.631000  6.141000  11.636000
H  4.257000  4.599000  11.519000
C  5.136000  10.764000  5.884000
H  4.221000  10.273000  5.480000
H  5.342000  11.909000  5.728000
H  6.040000  10.203000  5.474000
20
Lattice="25.0 0.0 0.0 0.0 25.0 0.0 0.0 0.0 50.0" Properties=species:S:1:pos:R:3 pbc="F F F" Time = 0.0 Energy= 300.318
H  5.648000  8.258000  6.308000
C  5.419000  8.248000  7.357000
C  5.127000  9.472000  7.983000
O  5.100000  10.729000  7.342000
C  4.785000  9.418000  9.363000
H  4.527000  10.390000  9.894000
C  4.687000  8.177000  10.070000
H  4.437000  8.233000  11.123000
C  4.971000  6.946000  9.372000
C  5.425000  7.078000  8.077000
H  5.715000  6.161000  7.518000
O  4.900000  5.729000  9.944000
C  4.538000  5.654000  11.364000
H  5.258000  6.129000  12.005000
H  3.622000  6.271000  11.508000
H  4.523000  4.572000  11.586000
C  5.009000  10.721000  5.884000
H  4.064000  10.330000  5.525000
H  4.999000  11.773000  5.579000
H  5.934000  10.255000  5.375000
20
Lattice="25.0 0.0 0.0 0.0 25.0 0.0 0.0 0.0 50.0" Properties=species:S:1:pos:R:3 pbc="F F F" Time = 0.0 Energy= 308.237
H  5.443000  8.750000  5.831000
C  5.239000  8.477000  6.919000
C  4.916000  9.512000  7.747000
O  4.741000  10.884000  7.327000
C  4.826000  9.314000  9.183000
H  4.640000  10.125000  9.841000
C  4.984000  8.004000  9.644000
H  4.892000  7.806000  10.706000
C  5.331000  6.947000  8.763000
C  5.397000  7.145000  7.395000
H  5.717000  6.344000  6.735000
O  5.672000  5.637000  9.227000
C  5.737000  5.406000  10.640000
H  6.439000  6.108000  11.168000
H  4.688000  5.558000  11.098000
H  6.161000  4.439000  10.704000
C  5.180000  11.330000  6.001000
H  4.595000  10.906000  5.207000
H  4.947000  12.417000  5.967000
H  6.335000  11.084000  5.882000
20
Lattice="25.0 0.0 0.0 0.0 25.0 0.0 0.0 0.0 50.0" Properties=species:S:1:pos:R:3 pbc="F F F" Time = 0.0 Energy= 304.124
H  4.990000  8.574000  5.734000
C  4.896000  8.468000  6.771000
C  4.734000  9.551000  7.686000
O  4.640000  10.892000  7.388000
C  4.711000  9.317000  9.082000
H  4.538000  10.192000  9.779000
C  4.848000  8.048000  9.598000
H  4.705000  7.899000  10.689000
C  5.049000  6.932000  8.706000
C  5.076000  7.149000  7.336000
H  5.179000  6.235000  6.715000
O  5.224000  5.592000  9.101000
C  5.519000  5.542000  10.528000
H  6.294000  6.312000  10.839000
H  4.573000  5.629000  11.181000
H  6.050000  4.521000  10.741000
C  4.816000  11.212000  5.980000
H  4.134000  10.615000  5.389000
H  4.504000  12.274000  5.837000
H  5.889000  10.996000  5.676000
20
Lattice="25.0 0.0 0.0 0.0 25.0 0.0 0.0 0.0 50.0" Properties=species:S:1:pos:R:3 pbc="F F F" Time = 0.0 Energy= 302.61000000000007
H  4.709000  8.698000  5.760000
C  4.770000  8.559000  6.827000
C  4.530000  9.717000  7.607000
O  4.204000  10.951000  7.094000
C  4.629000  9.609000  9.003000
H  4.467000  10.354000  9.768000
C  4.836000  8.341000  9.566000
H  4.749000  8.240000  10.626000
C  5.026000  7.151000  8.828000
C  5.029000  7.320000  7.435000
H  5.101000  6.395000  6.819000
O  4.982000  5.931000  9.434000
C  5.330000  5.835000  10.841000
H  6.412000  5.804000  10.991000
H  4.710000  6.519000  11.487000
H  4.925000  4.898000  11.160000
C  4.324000  11.233000  5.697000
H  3.608000  10.591000  5.071000
H  4.220000  12.314000  5.623000
H  5.349000  10.827000  5.455000
20
Lattice="25.0 0.0 0.0 0.0 25.0 0.0 0.0 0.0 50.0" Properties=species:S:1:pos:R:3 pbc="F F F" Time = 0.0 Energy= 312.46199999999993
H  5.133000  8.302000  6.495000
C  4.814000  8.074000  7.517000
C  4.724000  9.172000  8.410000
O  4.861000  10.471000  8.020000
C  4.277000  9.028000  9.731000
H  4.188000  9.925000  10.332000
C  3.994000  7.713000  10.175000
H  3.760000  7.682000  11.267000
C  4.062000  6.615000  9.368000
C  4.396000  6.784000  8.006000
H  4.425000  5.959000  7.292000
O  3.927000  5.318000  9.914000
C  4.339000  5.111000  11.335000
H  5.233000  5.697000  11.629000
H  3.593000  5.408000  12.084000
H  4.571000  3.963000  11.464000
C  5.373000  10.702000  6.642000
H  4.743000  10.182000  5.958000
H  5.548000  11.714000  6.608000
H  6.338000  10.224000  6.528000
20
Lattice="25.0 0.0 0.0 0.0 25.0 0.0 0.0 0.0 50.0" Properties=species:S:1:pos:R:3 pbc="F F F" Time = 0.0 Energy= 307.925
H  5.211000  7.282000  6.588000
C  4.958000  7.198000  7.640000
C  4.786000  8.340000  8.424000
O  5.123000  9.675000  8.089000
C  4.516000  8.191000  9.831000
H  4.524000  9.153000  10.421000
C  4.378000  6.877000  10.349000
H  4.406000  6.942000  11.470000
C  4.483000  5.782000  9.522000
C  4.767000  5.927000  8.186000
H  4.794000  5.036000  7.593000
O  4.528000  4.499000  10.114000
C  4.781000  4.397000  11.528000
H  5.468000  5.173000  11.883000
H  3.884000  4.548000  12.126000
H  5.236000  3.400000  11.618000
C  5.604000  9.887000  6.712000
H  4.829000  9.617000  6.083000
H  5.927000  10.925000  6.721000
H  6.471000  9.274000  6.503000
20
Lattice="25.0 0.0 0.0 0.0 25.0 0.0 0.0 0.0 50.0" Properties=species:S:1:pos:R:3 pbc="F F F" Time = 0.0 Energy= 304.327
H  5.749000  7.822000  6.875000
C  5.292000  7.647000  7.805000
C  5.006000  8.726000  8.629000
O  5.386000  10.001000  8.374000
C  4.333000  8.448000  9.863000
H  4.049000  9.344000  10.420000
C  4.184000  7.114000  10.296000
H  3.621000  6.990000  11.245000
C  4.402000  6.093000  9.364000
C  4.983000  6.369000  8.089000
H  5.278000  5.614000  7.352000
O  4.064000  4.701000  9.648000
C  3.964000  4.356000  11.030000
H  4.645000  4.939000  11.606000
H  3.024000  4.674000  11.517000
H  4.144000  3.318000  11.162000
C  5.777000  10.422000  7.098000
H  5.100000  10.065000  6.309000
H  6.025000  11.530000  7.186000
H  6.713000  9.968000  6.708000
20
Lattice="25.0 0.0 0.0 0.0 25.0 0.0 0.0 0.0 50.0" Properties=species:S:1:pos:R:3 pbc="F F F" Time = 0.0 Energy= 304.226
H  4.709000  7.743000  6.530000
C  4.766000  7.663000  7.620000
C  4.810000  8.827000  8.374000
O  4.819000  10.117000  7.902000
C  4.899000  8.648000  9.764000
H  4.956000  9.490000  10.522000
C  4.908000  7.363000  10.391000
H  4.868000  7.326000  11.501000
C  4.694000  6.239000  9.623000
C  4.644000  6.345000  8.196000
H  4.455000  5.567000  7.515000
O  4.601000  4.919000  10.114000
C  4.463000  4.941000  11.574000
H  5.420000  5.292000  12.061000
H  3.550000  5.374000  11.993000
H  4.414000  3.879000  11.979000
C  5.387000  10.311000  6.603000
H  4.624000  10.171000  5.838000
H  5.792000  11.314000  6.612000
H  6.163000  9.527000  6.453000
20
Lattice="25.0 0.0 0.0 0.0 25.0 0.0 0.0 0.0 50.0" Properties=species:S:1:pos:R:3 pbc="F F F" Time = 0.0 Energy= 315.49
H  5.477000  7.349000  6.103000
C  5.164000  7.482000  7.155000
C  4.940000  8.726000  7.806000
O  5.226000  9.912000  7.215000
C  4.531000  8.785000  9.148000
H  4.481000  9.785000  9.647000
C  4.324000  7.598000  9.889000
H  4.044000  7.670000  10.866000
C  4.555000  6.305000  9.244000
C  4.912000  6.293000  7.906000
H  5.041000  5.239000  7.542000
O  4.382000  5.077000  9.878000
C  4.546000  4.944000  11.334000
H  5.542000  5.369000  11.716000
H  3.666000  5.297000  11.905000
H  4.617000  3.858000  11.616000
C  5.874000  10.076000  5.918000
H  6.496000  9.179000  5.856000
H  5.171000  10.074000  5.154000
H  6.433000  11.015000  6.031000
20
Lattice="25.0 0.0 0.0 0.0 25.0 0.0 0.0 0.0 50.0" Properties=species:S:1:pos:R:3 pbc="F F F" Time = 0.0 Energy= 311.821
H  6.024000  7.401000  6.479000
C  5.706000  7.374000  7.537000
C  5.633000  8.552000  8.266000
O  5.778000  9.797000  7.746000
C  5.116000  8.556000  9.569000
H  4.955000  9.558000  10.097000
C  4.737000  7.394000  10.240000
H  4.367000  7.478000  11.289000
C  4.824000  6.149000  9.540000
C  5.312000  6.183000  8.196000
H  5.289000  5.247000  7.681000
O  4.527000  4.923000  10.150000
C  4.262000  4.816000  11.507000
H  5.160000  5.123000  12.079000
H  3.375000  5.512000  11.749000
H  3.995000  3.775000  11.720000
C  5.851000  10.156000  6.331000
H  6.597000  9.574000  5.789000
H  4.873000  10.034000  5.873000
H  6.162000  11.192000  6.361000
20
Lattice="25.0 0.0 0.0 0.0 25.0 0.0 0.0 0.0 50.0" Properties=species:S:1:pos:R:3 pbc="F F F" Time = 0.0 Energy= 304.938
H  5.668000  7.012000  6.603000
C  5.279000  7.078000  7.598000
C  5.283000  8.347000  8.298000
O  5.611000  9.572000  7.781000
C  5.001000  8.403000  9.641000
H  5.035000  9.365000  10.198000
C  4.565000  7.239000  10.321000
H  4.288000  7.300000  11.432000
C  4.648000  5.992000  9.689000
C  4.905000  5.942000  8.281000
H  4.865000  4.940000  7.782000
O  4.316000  4.725000  10.209000
C  4.238000  4.682000  11.649000
H  5.117000  5.064000  12.111000
H  3.232000  4.996000  12.000000
H  4.266000  3.633000  11.965000
C  5.658000  9.578000  6.290000
H  6.535000  9.006000  5.853000
H  4.724000  9.121000  5.848000
H  5.818000  10.656000  6.009000
20
Lattice="25.0 0.0 0.0 0.0 25.0 0.0 0.0 0.0 50.0" Properties=species:S:1:pos:R:3 pbc="F F F" Time = 0.0 Energy= 305.0400000000001
H  5.477000  6.958000  6.602000
C  5.202000  7.086000  7.625000
C  5.263000  8.328000  8.305000
O  5.706000  9.527000  7.731000
C  4.926000  8.385000  9.678000
H  4.907000  9.412000  10.106000
C  4.660000  7.227000  10.360000
H  4.291000  7.305000  11.452000
C  4.575000  5.969000  9.659000
C  4.932000  5.914000  8.355000
H  5.121000  4.960000  7.825000
O  4.255000  4.788000  10.266000
C  4.185000  4.620000  11.689000
H  4.984000  5.144000  12.166000
H  3.297000  5.175000  12.095000
H  4.176000  3.523000  11.779000
C  5.677000  9.543000  6.329000
H  6.551000  8.961000  5.942000
H  4.705000  9.084000  6.021000
H  5.636000  10.602000  5.951000
20
Lattice="25.0 0.0 0.0 0.0 25.0 0.0 0.0 0.0 50.0" Properties=species:S:1:pos:R:3 pbc="F F F" Time = 0.0 Energy= 304.226
H  5.842000  6.888000  6.856000
C  5.431000  6.992000  7.872000
C  5.499000  8.254000  8.575000
O  5.930000  9.513000  8.141000
C  5.229000  8.221000  9.947000
H  5.379000  9.101000  10.576000
C  4.590000  7.129000  10.512000
H  4.220000  7.035000  11.517000
C  4.417000  5.917000  9.752000
C  4.784000  5.901000  8.417000
H  4.681000  5.025000  7.782000
O  4.047000  4.747000  10.314000
C  3.328000  4.696000  11.569000
H  4.084000  4.875000  12.415000
H  2.454000  5.366000  11.603000
H  2.950000  3.691000  11.695000
C  6.231000  9.632000  6.696000
H  7.060000  8.952000  6.404000
H  5.319000  9.359000  6.133000
H  6.470000  10.664000  6.520000
20
Lattice="25.0 0.0 0.0 0.0 25.0 0.0 0.0 0.0 50.0" Properties=species:S:1:pos:R:3 pbc="F F F" Time = 0.0 Energy= 302.209
H  5.946000  7.214000  6.550000
C  5.318000  7.382000  7.492000
C  5.274000  8.566000  8.253000
O  5.733000  9.780000  7.846000
C  4.980000  8.492000  9.605000
H  5.122000  9.408000  10.172000
C  4.549000  7.297000  10.180000
H  4.419000  7.442000  11.218000
C  4.449000  6.151000  9.386000
C  4.853000  6.196000  8.042000
H  4.710000  5.341000  7.395000
O  4.005000  4.848000  9.799000
C  3.837000  4.736000  11.195000
H  4.790000  4.569000  11.729000
H  3.214000  5.446000  11.681000
H  3.323000  3.756000  11.430000
C  5.893000  9.939000  6.433000
H  6.703000  9.300000  5.936000
H  4.986000  9.588000  5.864000
H  6.147000  11.024000  6.275000
20
Lattice="25.0 0.0 0.0 0.0 25.0 0.0 0.0 0.0 50.0" Properties=species:S:1:pos:R:3 pbc="F F F" Time = 0.0 Energy= 305.244
H  5.392000  7.473000  6.128000
C  5.114000  7.456000  7.227000
C  5.252000  8.579000  8.150000
O  5.548000  9.940000  7.843000
C  5.090000  8.352000  9.529000
H  5.322000  9.217000  10.195000
C  4.845000  7.095000  10.097000
H  4.826000  6.923000  11.196000
C  4.618000  6.085000  9.176000
C  4.802000  6.233000  7.769000
H  4.799000  5.389000  7.103000
O  4.292000  4.751000  9.488000
C  4.040000  4.512000  10.904000
H  4.931000  4.884000  11.574000
H  3.079000  4.990000  11.269000
H  3.936000  3.347000  10.832000
C  6.029000  10.073000  6.393000
H  6.919000  9.408000  6.263000
H  5.176000  9.905000  5.728000
H  6.268000  11.118000  6.283000
20
Lattice="25.0 0.0 0.0 0.0 25.0 0.0 0.0 0.0 50.0" Properties=species:S:1:pos:R:3 pbc="F F F" Time = 0.0 Energy= 304.429
H  5.215000  7.562000  6.079000
C  5.059000  7.454000  7.173000
C  5.152000  8.476000  8.117000
O  5.435000  9.851000  7.847000
C  4.952000  8.220000  9.501000
H  4.901000  9.042000  10.174000
C  4.755000  6.933000  9.970000
H  4.692000  6.732000  11.011000
C  4.727000  5.880000  8.971000
C  4.724000  6.181000  7.637000
H  4.488000  5.333000  6.967000
O  4.561000  4.560000  9.366000
C  4.828000  4.121000  10.678000
H  5.873000  4.295000  11.068000
H  4.057000  4.512000  11.530000
H  4.734000  3.000000  10.582000
C  5.760000  10.197000  6.514000
H  6.620000  9.711000  6.045000
H  4.935000  10.085000  5.776000
H  6.027000  11.270000  6.620000
20
Lattice="25.0 0.0 0.0 0.0 25.0 0.0 0.0 0.0 50.0" Properties=species:S:1:pos:R:3 pbc="F F F" Time = 0.0 Energy= 299.2339999999999
H  5.898000  7.469000  6.701000
C  5.590000  7.524000  7.739000
C  5.485000  8.783000  8.339000
O  5.785000  10.001000  7.724000
C  4.828000  8.856000  9.587000
H  4.497000  9.804000  9.978000
C  4.318000  7.679000  10.190000
H  3.606000  7.742000  11.115000
C  4.512000  6.410000  9.608000
C  5.116000  6.402000  8.350000
H  5.173000  5.497000  7.818000
O  3.935000  5.263000  10.061000
C  3.239000  5.304000  11.391000
H  3.990000  5.547000  12.097000
H  2.305000  5.929000  11.282000
H  2.907000  4.252000  11.588000
C  5.794000  10.055000  6.272000
H  6.736000  9.647000  5.929000
H  5.041000  9.418000  5.819000
H  5.628000  11.063000  5.939000
20
Lattice="25.0 0.0 0.0 0.0 25.0 0.0 0.0 0.0 50.0" Properties=species:S:1:pos:R:3 pbc="F F F" Time = 0.0 Energy= 311.821
H  5.968000  7.435000  6.565000
C  5.661000  7.492000  7.595000
C  5.510000  8.745000  8.258000
O  5.533000  9.936000  7.598000
C  5.125000  8.691000  9.553000
H  4.929000  9.705000  10.038000
C  4.771000  7.485000  10.228000
H  4.515000  7.363000  11.317000
C  4.821000  6.301000  9.532000
C  5.336000  6.262000  8.222000
H  5.333000  5.271000  7.815000
O  4.407000  5.058000  10.015000
C  4.012000  4.843000  11.420000
H  4.888000  5.292000  12.013000
H  3.182000  5.497000  11.621000
H  3.866000  3.782000  11.511000
C  6.169000  10.091000  6.282000
H  6.947000  9.331000  6.193000
H  5.361000  9.992000  5.548000
H  6.671000  11.040000  6.352000
20
Lattice="25.0 0.0 0.0 0.0 25.0 0.0 0.0 0.0 50.0" Properties=species:S:1:pos:R:3 pbc="F F F" Time = 0.0 Energy= 302.009
H  5.945000  7.004000  6.801000
C  5.565000  7.254000  7.782000
C  5.519000  8.570000  8.373000
O  6.111000  9.710000  7.794000
C  5.063000  8.693000  9.694000
H  5.073000  9.611000  10.287000
C  4.618000  7.600000  10.434000
H  4.520000  7.524000  11.477000
C  4.595000  6.328000  9.778000
C  5.122000  6.196000  8.541000
H  5.104000  5.233000  7.992000
O  4.318000  5.082000  10.331000
C  3.730000  5.085000  11.691000
H  4.502000  5.240000  12.423000
H  3.060000  5.944000  11.780000
H  3.198000  4.166000  11.896000
C  6.510000  9.430000  6.392000
H  7.348000  8.733000  6.208000
H  5.639000  9.133000  5.795000
H  6.922000  10.413000  6.095000
20
Lattice="25.0 0.0 0.0 0.0 25.0 0.0 0.0 0.0 50.0" Properties=species:S:1:pos:R:3 pbc="F F F" Time = 0.0 Energy= 306.167
H  5.902000  7.177000  6.740000
C  5.568000  7.277000  7.800000
C  5.644000  8.564000  8.415000
O  6.115000  9.696000  7.783000
C  5.186000  8.717000  9.711000
H  5.040000  9.710000  10.182000
C  4.675000  7.584000  10.370000
H  4.063000  7.642000  11.350000
C  4.831000  6.332000  9.885000
C  5.222000  6.155000  8.524000
H  5.214000  5.193000  8.019000
O  4.379000  5.134000  10.411000
C  3.709000  5.124000  11.729000
H  4.464000  5.021000  12.562000
H  3.145000  6.025000  11.937000
H  2.961000  4.292000  11.768000
C  6.581000  9.461000  6.372000
H  7.494000  8.892000  6.260000
H  5.751000  9.058000  5.787000
H  6.816000  10.469000  6.109000
20
Lattice="25.0 0.0 0.0 0.0 25.0 0.0 0.0 0.0 50.0" Properties=species:S:1:pos:R:3 pbc="F F F" Time = 0.0 Energy= 311.608
H  5.631000  7.418000  6.592000
C  5.568000  7.196000  7.615000
C  5.970000  8.204000  8.445000
O  6.453000  9.456000  7.982000
C  5.761000  8.195000  9.817000
H  5.878000  9.046000  10.533000
C  5.156000  7.059000  10.349000
H  4.749000  7.110000  11.424000
C  4.809000  5.977000  9.462000
C  4.973000  6.010000  8.089000
H  4.797000  5.197000  7.417000
O  4.308000  4.770000  9.948000
C  3.806000  4.754000  11.352000
H  4.598000  4.882000  12.090000
H  2.969000  5.484000  11.486000
H  3.325000  3.770000  11.503000
C  6.928000  9.577000  6.593000
H  7.859000  8.958000  6.384000
H  6.168000  9.301000  5.811000
H  7.219000  10.645000  6.432000
20
Lattice="25.0 0.0 0.0 0.0 25.0 0.0 0.0 0.0 50.0" Properties=species:S:1:pos:R:3 pbc="F F F" Time = 0.0 Energy= 310.441
H  5.134000  7.152000  6.557000
C  5.167000  7.136000  7.614000
C  5.428000  8.250000  8.474000
O  5.595000  9.536000  7.963000
C  5.340000  8.198000  9.902000
H  5.380000  9.096000  10.543000
C  4.956000  6.990000  10.435000
H  4.881000  6.702000  11.488000
C  4.765000  5.837000  9.618000
C  4.807000  5.952000  8.204000
H  4.496000  5.141000  7.520000
O  4.451000  4.572000  10.053000
C  4.036000  4.491000  11.447000
H  4.775000  4.686000  12.218000
H  3.083000  5.024000  11.637000
H  3.720000  3.454000  11.638000
C  6.116000  9.823000  6.617000
H  7.142000  9.393000  6.564000
H  5.445000  9.313000  5.848000
H  6.041000  10.944000  6.470000
20
Lattice="25.0 0.0 0.0 0.0 25.0 0.0 0.0 0.0 50.0" Properties=species:S:1:pos:R:3 pbc="F F F" Time = 0.0 Energy= 310.97
H  6.040000  7.132000  6.797000
C  5.595000  7.052000  7.807000
C  5.458000  8.258000  8.484000
O  6.007000  9.458000  8.044000
C  4.864000  8.297000  9.732000
H  4.776000  9.223000  10.189000
C  4.342000  7.130000  10.308000
H  3.899000  7.193000  11.299000
C  4.501000  5.877000  9.629000
C  5.043000  5.823000  8.349000
H  4.950000  4.881000  7.765000
O  4.184000  4.673000  10.294000
C  3.715000  4.693000  11.613000
H  4.431000  5.144000  12.291000
H  2.728000  5.233000  11.648000
H  3.605000  3.642000  11.940000
C  6.523000  9.425000  6.662000
H  7.494000  8.923000  6.677000
H  5.795000  8.832000  6.065000
H  6.652000  10.466000  6.365000
20
Lattice="25.0 0.0 0.0 0.0 25.0 0.0 0.0 0.0 50.0" Properties=species:S:1:pos:R:3 pbc="F F F" Time = 0.0 Energy= 312.355
H  6.189000  6.728000  6.839000
C  5.726000  6.895000  7.822000
C  5.400000  8.157000  8.383000
O  5.722000  9.371000  7.866000
C  4.672000  8.282000  9.620000
H  4.606000  9.270000  10.039000
C  4.346000  7.132000  10.303000
H  3.839000  7.314000  11.214000
C  4.608000  5.877000  9.732000
C  5.287000  5.769000  8.491000
H  5.360000  4.758000  7.986000
O  4.186000  4.655000  10.286000
C  3.635000  4.676000  11.626000
H  4.258000  5.230000  12.345000
H  2.669000  5.203000  11.684000
H  3.620000  3.609000  11.928000
C  6.588000  9.395000  6.691000
H  7.453000  8.748000  6.865000
H  5.952000  9.027000  5.841000
H  6.967000  10.434000  6.606000
20
Lattice="25.0 0.0 0.0 0.0 25.0 0.0 0.0 0.0 50.0" Properties=species:S:1:pos:R:3 pbc="F F F" Time = 0.0 Energy= 300.516
H  5.193000  7.264000  6.673000
C  5.087000  7.197000  7.721000
C  5.341000  8.388000  8.393000
O  5.770000  9.590000  7.828000
C  5.420000  8.389000  9.766000
H  5.720000  9.378000  10.255000
C  5.097000  7.257000  10.484000
H  5.176000  7.301000  11.554000
C  4.767000  6.084000  9.806000
C  4.796000  6.014000  8.416000
H  4.725000  5.087000  7.895000
O  4.495000  4.893000  10.423000
C  4.860000  4.863000  11.794000
H  5.942000  4.887000  11.897000
H  4.370000  5.598000  12.459000
H  4.642000  3.836000  12.128000
C  5.794000  9.681000  6.359000
H  6.580000  9.075000  5.876000
H  4.787000  9.417000  5.973000
H  6.016000  10.759000  6.267000
20
Lattice="25.0 0.0 0.0 0.0 25.0 0.0 0.0 0.0 50.0" Properties=species:S:1:pos:R:3 pbc="F F F" Time = 0.0 Energy= 309.38700000000006
H  4.562000  7.305000  6.761000
C  4.776000  7.363000  7.829000
C  5.539000  8.336000  8.583000
O  6.026000  9.452000  7.917000
C  5.850000  8.107000  9.963000
H  6.516000  8.786000  10.610000
C  5.329000  6.960000  10.643000
H  5.651000  6.808000  11.635000
C  4.525000  6.067000  9.929000
C  4.295000  6.267000  8.577000
H  3.698000  5.565000  8.017000
O  4.057000  4.907000  10.466000
C  4.335000  4.752000  11.870000
H  5.427000  4.755000  12.011000
H  3.868000  5.573000  12.391000
H  3.829000  3.850000  12.239000
C  6.314000  9.310000  6.478000
H  7.129000  8.630000  6.249000
H  5.463000  9.119000  5.817000
H  6.594000  10.360000  6.254000
20
Lattice="25.0 0.0 0.0 0.0 25.0 0.0 0.0 0.0 50.0" Properties=species:S:1:pos:R:3 pbc="F F F" Time = 0.0 Energy= 302.30899999999997
H  5.534000  7.100000  6.787000
C  5.265000  7.167000  7.802000
C  5.502000  8.309000  8.619000
O  6.131000  9.454000  8.149000
C  5.092000  8.289000  9.963000
H  5.320000  9.155000  10.584000
C  4.492000  7.141000  10.535000
H  4.120000  7.025000  11.537000
C  4.272000  6.011000  9.722000
C  4.585000  6.150000  8.424000
H  4.487000  5.221000  7.887000
O  3.712000  4.823000  10.143000
C  3.053000  4.785000  11.365000
H  3.686000  5.168000  12.196000
H  2.175000  5.454000  11.374000
H  2.820000  3.734000  11.560000
C  6.497000  9.626000  6.711000
H  6.979000  8.703000  6.363000
H  5.565000  9.772000  6.121000
H  7.175000  10.467000  6.590000
20
Lattice="25.0 0.0 0.0 0.0 25.0 0.0 0.0 0.0 50.0" Properties=species:S:1:pos:R:3 pbc="F F F" Time = 0.0 Energy= 305.859
H  4.963000  7.292000  6.517000
C  4.991000  7.183000  7.580000
C  5.392000  8.294000  8.438000
O  6.028000  9.424000  7.933000
C  5.456000  8.110000  9.825000
H  5.769000  8.912000  10.519000
C  5.115000  6.967000  10.456000
H  5.221000  6.868000  11.497000
C  4.685000  5.868000  9.665000
C  4.671000  6.030000  8.259000
H  4.641000  5.160000  7.647000
O  4.379000  4.580000  10.133000
C  4.494000  4.208000  11.513000
H  5.573000  3.930000  11.716000
H  4.187000  4.942000  12.292000
H  3.840000  3.331000  11.602000
C  6.236000  9.549000  6.485000
H  6.880000  8.725000  6.175000
H  5.238000  9.422000  6.041000
H  6.685000  10.481000  6.165000
20
Lattice="25.0 0.0 0.0 0.0 25.0 0.0 0.0 0.0 50.0" Properties=species:S:1:pos:R:3 pbc="F F F" Time = 0.0 Energy= 302.61000000000007
H  5.479000  6.909000  6.735000
C  5.194000  6.918000  7.866000
C  5.292000  8.115000  8.526000
O  5.764000  9.334000  8.089000
C  4.912000  8.156000  9.890000
H  5.098000  9.133000  10.427000
C  4.500000  7.003000  10.576000
H  4.290000  7.098000  11.615000
C  4.389000  5.764000  9.892000
C  4.818000  5.778000  8.525000
H  4.797000  4.782000  8.092000
O  4.004000  4.514000  10.315000
C  4.054000  4.279000  11.815000
H  5.139000  4.390000  12.005000
H  3.447000  5.106000  12.338000
H  3.814000  3.234000  12.047000
C  6.183000  9.451000  6.724000
H  7.118000  8.945000  6.544000
H  5.383000  9.102000  6.042000
H  6.150000  10.511000  6.630000
20
Lattice="25.0 0.0 0.0 0.0 25.0 0.0 0.0 0.0 50.0" Properties=species:S:1:pos:R:3 pbc="F F F" Time = 0.0 Energy= 309.282
H  5.672000  7.409000  6.407000
C  5.325000  7.447000  7.490000
C  5.379000  8.548000  8.388000
O  5.783000  9.798000  7.942000
C  5.138000  8.390000  9.757000
H  5.319000  9.219000  10.401000
C  4.700000  7.147000  10.299000
H  4.492000  7.062000  11.411000
C  4.534000  6.089000  9.392000
C  4.946000  6.214000  8.062000
H  4.857000  5.294000  7.448000
O  4.188000  4.741000  9.806000
C  4.169000  4.437000  11.240000
H  5.106000  4.717000  11.714000
H  3.336000  4.834000  11.903000
H  4.248000  3.318000  11.287000
C  6.085000  10.069000  6.555000
H  7.065000  9.653000  6.259000
H  5.262000  9.561000  6.001000
H  6.118000  11.204000  6.415000
20
Lattice="25.0 0.0 0.0 0.0 25.0 0.0 0.0 0.0 50.0" Properties=species:S:1:pos:R:3 pbc="F F F" Time = 0.0 Energy= 306.373
H  5.663000  6.949000  6.668000
C  5.318000  7.037000  7.698000
C  5.419000  8.215000  8.464000
O  5.851000  9.513000  8.005000
C  5.139000  8.187000  9.802000
H  5.100000  9.084000  10.386000
C  4.731000  6.962000  10.406000
H  4.565000  6.866000  11.567000
C  4.616000  5.850000  9.691000
C  4.876000  5.824000  8.340000
H  4.771000  4.956000  7.659000
O  4.151000  4.651000  10.170000
C  4.123000  4.645000  11.622000
H  5.108000  4.840000  12.136000
H  3.295000  5.301000  11.931000
H  3.906000  3.559000  11.783000
C  5.799000  9.671000  6.532000
H  6.609000  9.088000  6.110000
H  4.803000  9.424000  6.220000
H  6.108000  10.731000  6.429000
20
Lattice="25.0 0.0 0.0 0.0 25.0 0.0 0.0 0.0 50.0" Properties=species:S:1:pos:R:3 pbc="F F F" Time = 0.0 Energy= 302.51
H  5.608000  7.122000  6.575000
C  5.274000  7.158000  7.628000
C  5.330000  8.354000  8.371000
O  5.649000  9.658000  7.872000
C  4.949000  8.285000  9.759000
H  5.083000  9.056000  10.495000
C  4.609000  7.052000  10.303000
H  4.316000  7.008000  11.460000
C  4.531000  5.877000  9.558000
C  4.901000  5.943000  8.211000
H  4.962000  5.005000  7.633000
O  4.361000  4.626000  10.060000
C  4.032000  4.524000  11.486000