LAMMPS (29 Oct 2020)
Total wall time: 0:00:02
